    -----------------------------------------------------------------------
          PSI4: An Open-Source Ab Initio Electronic Structure Package
                              PSI 4.0.0-beta5 Driver

    J. M. Turney, A. C. Simmonett, R. M. Parrish, E. G. Hohenstein,
    F. A. Evangelista, J. T. Fermann, B. J. Mintz, L. A. Burns, J. J. Wilke,
    M. L. Abrams, N. J. Russ, M. L. Leininger, C. L. Janssen, E. T. Seidl,
    W. D. Allen, H. F. Schaefer, R. A. King, E. F. Valeev, C. D. Sherrill,
    and T. D. Crawford, WIREs Comput. Mol. Sci., (2011) (doi: 10.1002/wcms.93)

                         Additional Contributions by
    A. E. DePrince, M. Saitow, U. Bozkaya, A. Yu. Sokolov
    -----------------------------------------------------------------------

    Process ID:  78295
    PSI4DATADIR: /usr/local/psi4/share/psi

    Using LocalCommunicator (Number of processes = 1)

    Memory level set to 256.000 MB

  ==> Input File <==

--------------------------------------------------------------------------
molecule Be {
Be   0.0                      0.0                      0.0
units au
}

plugin_load("./mointegrals.so")

set basis cc-pVDZ
set mointegrals print 1
set reference rhf

#optimize('scf')
scf()

plugin("mointegrals.so")
--------------------------------------------------------------------------
./mointegrals.so loaded.

*** tstart() called on we06c110.ugent.be
*** at Mon Sep 15 16:10:34 2014

	There are an even number of electrons - assuming singlet.
	Specify the multiplicity with the MULTP option in the
	input if this is incorrect


         ---------------------------------------------------------
                                   SCF
            by Justin Turney, Rob Parrish, and Andy Simmonett
                              RHF Reference
                        1 Threads,    256 MiB Core
         ---------------------------------------------------------

  ==> Geometry <==

    Molecular point group: d2h
    Geometry (in Bohr), charge = 0, multiplicity = 1:

       Center              X                  Y                   Z       
    ------------   -----------------  -----------------  -----------------
          BE          0.000000000000     0.000000000000     0.000000000000

  Running in d2h symmetry.

  Nuclear repulsion =    0.000000000000000

  Charge       = 0
  Multiplicity = 1
  Electrons    = 4
  Nalpha       = 2
  Nbeta        = 2

  ==> Algorithm <==

  SCF Algorithm Type is PK.
  DIIS enabled.
  MOM disabled.
  Fractional occupation disabled.
  Guess Type is CORE.
  Energy threshold   = 1.00e-06
  Density threshold  = 1.00e-06
  Integral threshold = 0.00e+00

  ==> Primary Basis <==

  Basis Set: cc-pVDZ
    Number of shells: 6
    Number of basis function: 14
    Number of Cartesian functions: 15
    Spherical Harmonics?: true
    Max angular momentum: 2

  ==> Pre-Iterations <==

   -------------------------------------------------------
    Irrep   Nso     Nmo     Nalpha   Nbeta   Ndocc  Nsocc
   -------------------------------------------------------
     Ag         5       5       0       0       0       0
     B1g        1       1       0       0       0       0
     B2g        1       1       0       0       0       0
     B3g        1       1       0       0       0       0
     Au         0       0       0       0       0       0
     B1u        2       2       0       0       0       0
     B2u        2       2       0       0       0       0
     B3u        2       2       0       0       0       0
   -------------------------------------------------------
    Total      14      14       2       2       2       0
   -------------------------------------------------------

  Starting with a DF guess...

 OEINTS: Wrapper to libmints.
   by Justin Turney

   Calculation information:
      Number of atoms:                   1
      Number of AO shells:               6
      Number of SO shells:               6
      Number of primitives:             22
      Number of atomic orbitals:        15
      Number of basis functions:        14

      Number of irreps:                  8
      Number of functions per irrep: [   5    1    1    1    0    2    2    2 ]

      Overlap, kinetic, potential, dipole, and quadrupole integrals
        stored in file 35.

  ==> Integral Setup <==

!!!!!!!!!!!!!!!!!!!!!!!!!!!!!!!!!!!!!!!!!!!!!!!!!
sanity check failed! Gaussian94BasisSetParser::parser: Unable to find the basis set for BE in /usr/local/psi4/share/psi/basis/cc-pvdz-jkfit.gbs
file: /Users/guacke/bin/psi4.0b5/src/lib/libmints/basisset_parser.cc
line: 362
   Turning off DF and switching to PK method.
!!!!!!!!!!!!!!!!!!!!!!!!!!!!!!!!!!!!!!!!!!!!!!!!!
 MINTS: Wrapper to libmints.
   by Justin Turney

   Calculation information:
      Number of atoms:                   1
      Number of AO shells:               6
      Number of SO shells:               6
      Number of primitives:             22
      Number of atomic orbitals:        15
      Number of basis functions:        14

      Number of irreps:                  8
      Integral cutoff                 0.00e+00
      Number of functions per irrep: [   5    1    1    1    0    2    2    2 ]

      Overlap, kinetic, potential, dipole, and quadrupole integrals
        stored in file 35.

      Computing two-electron integrals...done
      Computed 793 non-zero two-electron integrals.
        Stored in file 33.

	Batch   1 pq = [       0,      27] index = [             0,378]
  ==> DiskJK: Disk-Based J/K Matrices <==

    J tasked:                  Yes
    K tasked:                  Yes
    wK tasked:                  No
    Memory (MB):               183
    Schwarz Cutoff:          1E-12

  Minimum eigenvalue in the overlap matrix is 1.6738230932E-01.
  Using Symmetric Orthogonalization.
  SCF Guess: Core (One-Electron) Hamiltonian.

  ==> Iterations <==

                        Total Energy        Delta E     RMS |[F,P]|

   @RHF iter   1:   -14.40514935258559   -1.44051e+01   3.68149e-02 
   @RHF iter   2:   -14.55888366845781   -1.53734e-01   1.21851e-02 DIIS
   @RHF iter   3:   -14.57231936405273   -1.34357e-02   5.02591e-04 DIIS
   @RHF iter   4:   -14.57233744581086   -1.80818e-05   4.64860e-05 DIIS
   @RHF iter   5:   -14.57233763091839   -1.85108e-07   6.37760e-07 DIIS

  ==> Post-Iterations <==

	Orbital Energies (a.u.)
	-----------------------

	Doubly Occupied:                                                      

	   1Ag    -4.732326     2Ag    -0.309039  

	Virtual:                                                              

	   1B2u    0.058259     1B3u    0.058259     1B1u    0.058259  
	   3Ag     0.298823     2B2u    0.350180     2B3u    0.350180  
	   2B1u    0.350180     1B3g    0.650773     1B2g    0.650773  
	   1B1g    0.650773     4Ag     0.650773     5Ag     0.650773  

	Final Occupation by Irrep:
	         Ag   B1g   B2g   B3g    Au   B1u   B2u   B3u 
	DOCC [     2,    0,    0,    0,    0,    0,    0,    0 ]

  Energy converged.

  @RHF Final Energy:   -14.57233763091839

   => Energetics <=

    Nuclear Repulsion Energy =              0.0000000000000000
    One-Electron Energy =                 -19.0619355701291902
    Two-Electron Energy =                   4.4895979392108005
    DFT Exchange-Correlation Energy =       0.0000000000000000
    Empirical Dispersion Energy =           0.0000000000000000
    Total Energy =                        -14.5723376309183905



Properties will be evaluated at   0.000000,   0.000000,   0.000000 Bohr
  ==> Properties <==


Properties computed using the SCF density density matrix
  Nuclear Dipole Moment: (a.u.)
     X:     0.0000      Y:     0.0000      Z:     0.0000

  Electronic Dipole Moment: (a.u.)
     X:     0.0000      Y:     0.0000      Z:     0.0000

  Dipole Moment: (a.u.)
     X:     0.0000      Y:     0.0000      Z:     0.0000     Total:     0.0000

  Dipole Moment: (Debye)
     X:     0.0000      Y:     0.0000      Z:     0.0000     Total:     0.0000


  Saving occupied orbitals to File 180.

*** tstop() called on we06c110.ugent.be at Mon Sep 15 16:10:34 2014
Module time:
	user time   =       0.05 seconds =       0.00 minutes
	system time =       0.01 seconds =       0.00 minutes
	total time  =          0 seconds =       0.00 minutes
Total time:
	user time   =       0.05 seconds =       0.00 minutes
	system time =       0.01 seconds =       0.00 minutes
	total time  =          0 seconds =       0.00 minutes
Reading options from the MOINTEGRALS block
Calling plugin mointegrals.so.
	Presorting SO-basis two-electron integrals.
	Sorting File: SO Ints (nn|nn) nbuckets = 1
	Transforming the one-electron integrals and constructing Fock matrices
	Starting first half-transformation.
	Sorting half-transformed integrals.
	First half integral transformation complete.
	Starting second half-transformation.
	Two-electron integral transformation complete.
  ## MO OEI (Symmetry 0) ##
  Irrep: 1 Size: 5 x 5

                 1            2            3            4            5

    1   -7.9419537    0.1958479    0.1622945    0.0000000    0.0000000
    2    0.1958479   -1.5890193   -0.4186736    0.0000000    0.0000000
    3    0.1622945   -0.4186736   -0.9483138    0.0000000    0.0000000
    4    0.0000000    0.0000000    0.0000000   -0.8277997   -0.0000000
    5    0.0000000    0.0000000    0.0000000   -0.0000000   -0.8277997



  Irrep: 2 Size: 1 x 1

                 1

    1   -0.8277997



  Irrep: 3 Size: 1 x 1

                 1

    1   -0.8277997



  Irrep: 4 Size: 1 x 1

                 1

    1   -0.8277997



  Irrep: 5 Size: 0 x 0

	(empty)

  Irrep: 6 Size: 2 x 2

                 1            2

    1   -1.1048836   -0.4760338
    2   -0.4760338   -1.3078861



  Irrep: 7 Size: 2 x 2

                 1            2

    1   -1.1048836   -0.4760338
    2   -0.4760338   -1.3078861



  Irrep: 8 Size: 2 x 2

                 1            2

    1   -1.1048836   -0.4760338
    2   -0.4760338   -1.3078861



****  Molecular Integrals For DOCI Start Here 
Nalpha = 2 
Nbeta = 2 
Symmetry Label = d2h 
Nirreps = 8 
Nuclear Repulsion Energy = 0.000000000000000000000000000000000000000000000000 
Number Of Molecular Orbitals = 14 
Irreps Of Molecular Orbitals = 
0 0 5 6 7 0 5 6 7 1 2 3 0 0 
DOCC =  2  0  0  0  0  0  0  0 
SOCC =  0  0  0  0  0  0  0  0 
****  MO OEI 
0 0 -7.941953685848719857176547520793974399566650390625 
0 1 0.195847869373955152383359745726920664310455322266 
0 5 0.162294471316186239562284754356369376182556152344 
0 12 0.000000000000000000000000000000000000000000000000 
0 13 0.000000000000000000000000000000000000000000000000 
1 0 0.195847869373955152383359745726920664310455322266 
1 1 -1.589019263489697131319644540781155228614807128906 
1 5 -0.418673551350559058903400000417605042457580566406 
1 12 0.000000000000000000000000000000000000000000000000 
1 13 0.000000000000000000000000000000000000000000000000 
5 0 0.162294471316186239562284754356369376182556152344 
5 1 -0.418673551350559058903400000417605042457580566406 
5 5 -0.948313834293893265225960931275039911270141601562 
5 12 0.000000000000000000000000000000000000000000000000 
5 13 0.000000000000000000000000000000000000000000000000 
12 0 0.000000000000000000000000000000000000000000000000 
12 1 0.000000000000000000000000000000000000000000000000 
12 5 0.000000000000000000000000000000000000000000000000 
12 12 -0.827799689377234804155136771441902965307235717773 
12 13 -0.000000000000000034694469519536148051214311666993 
13 0 0.000000000000000000000000000000000000000000000000 
13 1 0.000000000000000000000000000000000000000000000000 
13 5 0.000000000000000000000000000000000000000000000000 
13 12 -0.000000000000000034694469519536148051214311666993 
13 13 -0.827799689377235248244346621504519134759902954102 
9 9 -0.827799689377235248244346621504519134759902954102 
10 10 -0.827799689377235248244346621504519134759902954102 
11 11 -0.827799689377235248244346621504519134759902954102 
2 2 -1.104883564976090637443917330529075115919113159180 
2 6 -0.476033776023727428494680680159945040941238403320 
6 2 -0.476033776023727428494680680159945040941238403320 
6 6 -1.307886142616875302380208268004935234785079956055 
3 3 -1.104883564976090637443917330529075115919113159180 
3 7 -0.476033776023727428494680680159945040941238403320 
7 3 -0.476033776023727428494680680159945040941238403320 
7 7 -1.307886142616875302380208268004935234785079956055 
4 4 -1.104883564976090637443917330529075115919113159180 
4 8 -0.476033776023727428494680680159945040941238403320 
8 4 -0.476033776023727428494680680159945040941238403320 
8 8 -1.307886142616875302380208268004935234785079956055 
****  MO TEI 
0 0 0 0 2.273135921981952467518794946954585611820220947266 
0 0 0 1 -0.190188055880293332977615250456437934190034866333 
0 0 0 5 -0.157665905801956274245867462013848125934600830078 
0 0 0 12 0.000000000000000000000000000000000000000000000000 
0 0 0 13 0.000000000000000000000000000000000000000000000000 
0 0 1 0 -0.190188055880293332977615250456437934190034866333 
0 0 1 1 0.480898725852437813887974016324733383953571319580 
0 0 1 5 0.182466494570107551353999042476061731576919555664 
0 0 1 12 0.000000000000000000000000000000000000000000000000 
0 0 1 13 0.000000000000000000000000000000000000000000000000 
0 0 5 0 -0.157665905801956274245867462013848125934600830078 
0 0 5 1 0.182466494570107551353999042476061731576919555664 
0 0 5 5 0.377258957076209267000876934616826474666595458984 
0 0 5 12 0.000000000000000000000000000000000000000000000000 
0 0 5 13 0.000000000000000000000000000000000000000000000000 
0 0 12 0 0.000000000000000000000000000000000000000000000000 
0 0 12 1 0.000000000000000000000000000000000000000000000000 
0 0 12 5 0.000000000000000000000000000000000000000000000000 
0 0 12 12 0.415087895806507789497885596574633382260799407959 
0 0 12 13 -0.000000000000000013922142739105391384149784115835 
0 0 13 0 0.000000000000000000000000000000000000000000000000 
0 0 13 1 0.000000000000000000000000000000000000000000000000 
0 0 13 5 0.000000000000000000000000000000000000000000000000 
0 0 13 12 -0.000000000000000013922142739105391384149784115835 
0 0 13 13 0.415087895806507956031339290348114445805549621582 
0 0 9 9 0.415087895806507789497885596574633382260799407959 
0 0 10 10 0.415087895806507789497885596574633382260799407959 
0 0 11 11 0.415087895806507789497885596574633382260799407959 
0 0 2 2 0.331325252724450347585616327705793082714080810547 
0 0 2 6 0.174616712723554556863092557250638492405414581299 
0 0 6 2 0.174616712723554556863092557250638492405414581299 
0 0 6 6 0.528283345927603065206312749069184064865112304688 
0 0 3 3 0.331325252724450347585616327705793082714080810547 
0 0 3 7 0.174616712723554556863092557250638492405414581299 
0 0 7 3 0.174616712723554556863092557250638492405414581299 
0 0 7 7 0.528283345927603065206312749069184064865112304688 
0 0 4 4 0.331325252724450347585616327705793082714080810547 
0 0 4 8 0.174616712723554556863092557250638492405414581299 
0 0 8 4 0.174616712723554556863092557250638492405414581299 
0 0 8 8 0.528283345927603065206312749069184064865112304688 
0 1 0 0 -0.190188055880293277466464019198610913008451461792 
0 1 0 1 0.025305805971179491653533233375128475017845630646 
0 1 0 5 0.020503975859071450066339892259748012293130159378 
0 1 0 12 0.000000000000000000000000000000000000000000000000 
0 1 0 13 0.000000000000000000000000000000000000000000000000 
0 1 1 0 0.025305805971179491653533233375128475017845630646 
0 1 1 1 -0.005659813856132174351987185190182572114281356335 
0 1 1 5 -0.004614989638574227247269643470417577191255986691 
0 1 1 12 0.000000000000000000000000000000000000000000000000 
0 1 1 13 0.000000000000000000000000000000000000000000000000 
0 1 5 0 0.020503975859071450066339892259748012293130159378 
0 1 5 1 -0.004614989638574227247269643470417577191255986691 
0 1 5 5 -0.003935777680532074815356047281511564506217837334 
0 1 5 12 0.000000000000000000000000000000000000000000000000 
0 1 5 13 0.000000000000000000000000000000000000000000000000 
0 1 12 0 0.000000000000000000000000000000000000000000000000 
0 1 12 1 0.000000000000000000000000000000000000000000000000 
0 1 12 5 0.000000000000000000000000000000000000000000000000 
0 1 12 12 -0.000576560959790785310108418570962385274469852448 
0 1 12 13 0.000000000000000003716521905776501618265508060611 
0 1 13 0 0.000000000000000000000000000000000000000000000000 
0 1 13 1 0.000000000000000000000000000000000000000000000000 
0 1 13 5 0.000000000000000000000000000000000000000000000000 
0 1 13 12 0.000000000000000003716521905776501618265508060611 
0 1 13 13 -0.000576560959790792465842756975291649723658338189 
0 1 9 9 -0.000576560959790799404736660882520027371356263757 
0 1 10 10 -0.000576560959790799404736660882520027371356263757 
0 1 11 11 -0.000576560959790799404736660882520027371356263757 
0 1 2 2 -0.001026593130847491385643222017165498982649296522 
0 1 2 6 -0.002684360902015272588860828051338103250600397587 
0 1 6 2 -0.002684360902015272588860828051338103250600397587 
0 1 6 6 -0.007138290340617262953737398589737495058216154575 
0 1 3 3 -0.001026593130847491385643222017165498982649296522 
0 1 3 7 -0.002684360902015272588860828051338103250600397587 
0 1 7 3 -0.002684360902015272588860828051338103250600397587 
0 1 7 7 -0.007138290340617262953737398589737495058216154575 
0 1 4 4 -0.001026593130847491385643222017165498982649296522 
0 1 4 8 -0.002684360902015272588860828051338103250600397587 
0 1 8 4 -0.002684360902015272588860828051338103250600397587 
0 1 8 8 -0.007138290340617262953737398589737495058216154575 
0 5 0 0 -0.157665905801956107712413768240367062389850616455 
0 5 0 1 0.020503975859071443127445988352519634645432233810 
0 5 0 5 0.016872702769439029690801135075162164866924285889 
0 5 0 12 0.000000000000000000000000000000000000000000000000 
0 5 0 13 0.000000000000000000000000000000000000000000000000 
0 5 1 0 0.020503975859071443127445988352519634645432233810 
0 5 1 1 -0.004621777765079706709605567027665529167279601097 
0 5 1 5 -0.003735320054970653336212649264780338853597640991 
0 5 1 12 0.000000000000000000000000000000000000000000000000 
0 5 1 13 0.000000000000000000000000000000000000000000000000 
0 5 5 0 0.016872702769439029690801135075162164866924285889 
0 5 5 1 -0.003735320054970653336212649264780338853597640991 
0 5 5 5 -0.003252275959605529804391510495520378754008561373 
0 5 5 12 0.000000000000000000000000000000000000000000000000 
0 5 5 13 0.000000000000000000000000000000000000000000000000 
0 5 12 0 0.000000000000000000000000000000000000000000000000 
0 5 12 1 0.000000000000000000000000000000000000000000000000 
0 5 12 5 0.000000000000000000000000000000000000000000000000 
0 5 12 12 -0.000519022705077518131666636236332124099135398865 
0 5 12 13 -0.000000000000000008695674875598543219466172603816 
0 5 13 0 0.000000000000000000000000000000000000000000000000 
0 5 13 1 0.000000000000000000000000000000000000000000000000 
0 5 13 5 0.000000000000000000000000000000000000000000000000 
0 5 13 12 -0.000000000000000008695674875598543219466172603816 
0 5 13 13 -0.000519022705077490592931455104519500309834256768 
0 5 9 9 -0.000519022705077587737446109805716787377605214715 
0 5 10 10 -0.000519022705077587737446109805716787377605214715 
0 5 11 11 -0.000519022705077587737446109805716787377605214715 
0 5 2 2 -0.000928927536810874145481453645345482073025777936 
0 5 2 6 -0.002312575428289743821597124195932337897829711437 
0 5 6 2 -0.002312575428289743821597124195932337897829711437 
0 5 6 6 -0.006222560103077901492996115706546333967708051205 
0 5 3 3 -0.000928927536810874145481453645345482073025777936 
0 5 3 7 -0.002312575428289743821597124195932337897829711437 
0 5 7 3 -0.002312575428289743821597124195932337897829711437 
0 5 7 7 -0.006222560103077901492996115706546333967708051205 
0 5 4 4 -0.000928927536810874145481453645345482073025777936 
0 5 4 8 -0.002312575428289743821597124195932337897829711437 
0 5 8 4 -0.002312575428289743821597124195932337897829711437 
0 5 8 8 -0.006222560103077901492996115706546333967708051205 
0 12 0 0 0.000000000000000000000000000000000000000000000000 
0 12 0 1 0.000000000000000000000000000000000000000000000000 
0 12 0 5 0.000000000000000000000000000000000000000000000000 
0 12 0 12 0.000438442374026525233995238428619245496520306915 
0 12 0 13 -0.000000000000000000434245868945021096040146644740 
0 12 1 0 0.000000000000000000000000000000000000000000000000 
0 12 1 1 0.000000000000000000000000000000000000000000000000 
0 12 1 5 0.000000000000000000000000000000000000000000000000 
0 12 1 12 0.002056705499243979308465757327439860091544687748 
0 12 1 13 -0.000000000000000000000000629322552519495215217374 
0 12 5 0 0.000000000000000000000000000000000000000000000000 
0 12 5 1 0.000000000000000000000000000000000000000000000000 
0 12 5 5 0.000000000000000000000000000000000000000000000000 
0 12 5 12 0.001151331923112265676056864549536840058863162994 
0 12 5 13 -0.000000000000000000270249650079349675452794566307 
0 12 12 0 0.000438442374026525233995238428619245496520306915 
0 12 12 1 0.002056705499243979308465757327439860091544687748 
0 12 12 5 0.001151331923112265676056864549536840058863162994 
0 12 12 12 0.001265207909709093175160132815904034941922873259 
0 12 12 13 0.000000000000000000000000269207405524659368414520 
0 12 13 0 -0.000000000000000000434245868945021096040146644740 
0 12 13 1 -0.000000000000000000000000629322552519495215217374 
0 12 13 5 -0.000000000000000000270249650079349675452794566307 
0 12 13 12 0.000000000000000000000000269207405524659368414520 
0 12 13 13 -0.001265207909709086236266228908675657294224947691 
0 12 9 9 -0.001265207909709093175160132815904034941922873259 
0 12 10 10 0.000632603954854544961276807679695366459782235324 
0 12 11 11 0.000632603954854544961276807679695366459782235324 
0 12 2 2 0.001137109704055833028085720215472065319772809744 
0 12 2 6 0.001309123101583478101725410702727003808831796050 
0 12 6 2 0.001309123101583478101725410702727003808831796050 
0 12 6 6 0.002650197938299823224861384574069234076887369156 
0 12 3 3 -0.000568554852027916297202425610635145858395844698 
0 12 3 7 -0.000654561550791739159282922599913945305161178112 
0 12 7 3 -0.000654561550791739159282922599913945305161178112 
0 12 7 7 -0.001325098969149916382920251223254126671236008406 
0 12 4 4 -0.000568554852027916297202425610635145858395844698 
0 12 4 8 -0.000654561550791739159282922599913945305161178112 
0 12 8 4 -0.000654561550791739159282922599913945305161178112 
0 12 8 8 -0.001325098969149916382920251223254126671236008406 
0 13 0 0 0.000000000000000000000000000000000000000000000000 
0 13 0 1 0.000000000000000000000000000000000000000000000000 
0 13 0 5 0.000000000000000000000000000000000000000000000000 
0 13 0 12 -0.000000000000000000434245868945021096040146644740 
0 13 0 13 0.000438442374026525017154803931518358695029746741 
0 13 1 0 0.000000000000000000000000000000000000000000000000 
0 13 1 1 0.000000000000000000000000000000000000000000000000 
0 13 1 5 0.000000000000000000000000000000000000000000000000 
0 13 1 12 -0.000000000000000000000000629322552519495123381878 
0 13 1 13 0.002056705499243980175827495315843407297506928444 
0 13 5 0 0.000000000000000000000000000000000000000000000000 
0 13 5 1 0.000000000000000000000000000000000000000000000000 
0 13 5 5 0.000000000000000000000000000000000000000000000000 
0 13 5 12 -0.000000000000000000270249650079349675452794566307 
0 13 5 13 0.001151331923112265892897299046637726860353723168 
0 13 12 0 -0.000000000000000000434245868945021096040146644740 
0 13 12 1 -0.000000000000000000000000629322552519495123381878 
0 13 12 5 -0.000000000000000000270249650079349675452794566307 
0 13 12 12 -0.000000000000000000104248461219054045023605988649 
0 13 12 13 -0.001265207909709082983659711452162355271866545081 
0 13 13 0 0.000438442374026525017154803931518358695029746741 
0 13 13 1 0.002056705499243980175827495315843407297506928444 
0 13 13 5 0.001151331923112265892897299046637726860353723168 
0 13 13 12 -0.001265207909709082983659711452162355271866545081 
0 13 13 13 0.000000000000000000000000000000000000000000000000 
0 13 9 9 0.000000000000000000000000000000000000000000000000 
0 13 10 10 0.001095702190877084584996747906870950828306376934 
0 13 11 11 -0.001095702190877084584996747906870950828306376934 
0 13 2 2 0.000000000000000000000000000000000000000000000000 
0 13 2 6 0.000000000000000000000000000000000000000000000000 
0 13 6 2 0.000000000000000000000000000000000000000000000000 
0 13 6 6 0.000000000000000000000000000000000000000000000000 
0 13 3 3 -0.000984765890602156334851513541650547267636284232 
0 13 3 7 -0.001133733862652370159851411557383471517823636532 
0 13 7 3 -0.001133733862652370159851411557383471517823636532 
0 13 7 7 -0.002295138739624791486548804897438458283431828022 
0 13 4 4 0.000984765890602156334851513541650547267636284232 
0 13 4 8 0.001133733862652370159851411557383471517823636532 
0 13 8 4 0.001133733862652370159851411557383471517823636532 
0 13 8 8 0.002295138739624791486548804897438458283431828022 
1 0 0 0 -0.190188055880293277466464019198610913008451461792 
1 0 0 1 0.025305805971179491653533233375128475017845630646 
1 0 0 5 0.020503975859071450066339892259748012293130159378 
1 0 0 12 0.000000000000000000000000000000000000000000000000 
1 0 0 13 0.000000000000000000000000000000000000000000000000 
1 0 1 0 0.025305805971179491653533233375128475017845630646 
1 0 1 1 -0.005659813856132174351987185190182572114281356335 
1 0 1 5 -0.004614989638574227247269643470417577191255986691 
1 0 1 12 0.000000000000000000000000000000000000000000000000 
1 0 1 13 0.000000000000000000000000000000000000000000000000 
1 0 5 0 0.020503975859071450066339892259748012293130159378 
1 0 5 1 -0.004614989638574227247269643470417577191255986691 
1 0 5 5 -0.003935777680532074815356047281511564506217837334 
1 0 5 12 0.000000000000000000000000000000000000000000000000 
1 0 5 13 0.000000000000000000000000000000000000000000000000 
1 0 12 0 0.000000000000000000000000000000000000000000000000 
1 0 12 1 0.000000000000000000000000000000000000000000000000 
1 0 12 5 0.000000000000000000000000000000000000000000000000 
1 0 12 12 -0.000576560959790785310108418570962385274469852448 
1 0 12 13 0.000000000000000003716521905776501618265508060611 
1 0 13 0 0.000000000000000000000000000000000000000000000000 
1 0 13 1 0.000000000000000000000000000000000000000000000000 
1 0 13 5 0.000000000000000000000000000000000000000000000000 
1 0 13 12 0.000000000000000003716521905776501618265508060611 
1 0 13 13 -0.000576560959790792465842756975291649723658338189 
1 0 9 9 -0.000576560959790799404736660882520027371356263757 
1 0 10 10 -0.000576560959790799404736660882520027371356263757 
1 0 11 11 -0.000576560959790799404736660882520027371356263757 
1 0 2 2 -0.001026593130847491385643222017165498982649296522 
1 0 2 6 -0.002684360902015272588860828051338103250600397587 
1 0 6 2 -0.002684360902015272588860828051338103250600397587 
1 0 6 6 -0.007138290340617262953737398589737495058216154575 
1 0 3 3 -0.001026593130847491385643222017165498982649296522 
1 0 3 7 -0.002684360902015272588860828051338103250600397587 
1 0 7 3 -0.002684360902015272588860828051338103250600397587 
1 0 7 7 -0.007138290340617262953737398589737495058216154575 
1 0 4 4 -0.001026593130847491385643222017165498982649296522 
1 0 4 8 -0.002684360902015272588860828051338103250600397587 
1 0 8 4 -0.002684360902015272588860828051338103250600397587 
1 0 8 8 -0.007138290340617262953737398589737495058216154575 
1 1 0 0 0.480898725852437813887974016324733383953571319580 
1 1 0 1 -0.005659813856132178688795875132200308144092559814 
1 1 0 5 -0.004621777765079743138798562540614511817693710327 
1 1 0 12 0.000000000000000000000000000000000000000000000000 
1 1 0 13 0.000000000000000000000000000000000000000000000000 
1 1 1 0 -0.005659813856132178688795875132200308144092559814 
1 1 1 1 0.343489054274122462828700008685700595378875732422 
1 1 1 5 0.074244551315497397947495983316912315785884857178 
1 1 1 12 0.000000000000000000000000000000000000000000000000 
1 1 1 13 0.000000000000000000000000000000000000000000000000 
1 1 5 0 -0.004621777765079743138798562540614511817693710327 
1 1 5 1 0.074244551315497397947495983316912315785884857178 
1 1 5 5 0.277050075021911423878151481403619982302188873291 
1 1 5 12 0.000000000000000000000000000000000000000000000000 
1 1 5 13 0.000000000000000000000000000000000000000000000000 
1 1 12 0 0.000000000000000000000000000000000000000000000000 
1 1 12 1 0.000000000000000000000000000000000000000000000000 
1 1 12 5 0.000000000000000000000000000000000000000000000000 
1 1 12 12 0.341971470788392739592609359533526003360748291016 
1 1 12 13 -0.000000000000000000115101886125814121586178306238 
1 1 13 0 0.000000000000000000000000000000000000000000000000 
1 1 13 1 0.000000000000000000000000000000000000000000000000 
1 1 13 5 0.000000000000000000000000000000000000000000000000 
1 1 13 12 -0.000000000000000000115101886125814121586178306238 
1 1 13 13 0.341971470788392795103760590791353024542331695557 
1 1 9 9 0.341971470788392739592609359533526003360748291016 
1 1 10 10 0.341971470788392739592609359533526003360748291016 
1 1 11 11 0.341971470788392739592609359533526003360748291016 
1 1 2 2 0.278633063242993084251963864517165347933769226074 
1 1 2 6 0.083028383953024725849800802279787603765726089478 
1 1 6 2 0.083028383953024725849800802279787603765726089478 
1 1 6 6 0.328887611223332987364642576721962541341781616211 
1 1 3 3 0.278633063242993084251963864517165347933769226074 
1 1 3 7 0.083028383953024725849800802279787603765726089478 
1 1 7 3 0.083028383953024725849800802279787603765726089478 
1 1 7 7 0.328887611223332987364642576721962541341781616211 
1 1 4 4 0.278633063242993084251963864517165347933769226074 
1 1 4 8 0.083028383953024725849800802279787603765726089478 
1 1 8 4 0.083028383953024725849800802279787603765726089478 
1 1 8 8 0.328887611223332987364642576721962541341781616211 
1 5 0 0 0.182466494570107468087272195589321199804544448853 
1 5 0 1 -0.004614989638574228114631381458821124397218227386 
1 5 0 5 -0.003735320054970570069485802378039807081222534180 
1 5 0 12 0.000000000000000000000000000000000000000000000000 
1 5 0 13 0.000000000000000000000000000000000000000000000000 
1 5 1 0 -0.004614989638574228114631381458821124397218227386 
1 5 1 1 0.074244551315497397947495983316912315785884857178 
1 5 1 5 0.044608849086739135736401351550739491358399391174 
1 5 1 12 0.000000000000000000000000000000000000000000000000 
1 5 1 13 0.000000000000000000000000000000000000000000000000 
1 5 5 0 -0.003735320054970570069485802378039807081222534180 
1 5 5 1 0.044608849086739135736401351550739491358399391174 
1 5 5 5 0.046266619432556339852613547236614977009594440460 
1 5 5 12 0.000000000000000000000000000000000000000000000000 
1 5 5 13 0.000000000000000000000000000000000000000000000000 
1 5 12 0 0.000000000000000000000000000000000000000000000000 
1 5 12 1 0.000000000000000000000000000000000000000000000000 
1 5 12 5 0.000000000000000000000000000000000000000000000000 
1 5 12 12 0.067415909642003279955702055303845554590225219727 
1 5 12 13 0.000000000000000006503102238065145937756445362084 
1 5 13 0 0.000000000000000000000000000000000000000000000000 
1 5 13 1 0.000000000000000000000000000000000000000000000000 
1 5 13 5 0.000000000000000000000000000000000000000000000000 
1 5 13 12 0.000000000000000006503102238065145937756445362084 
1 5 13 13 0.067415909642003196688975208417105022817850112915 
1 5 9 9 0.067415909642003363222428902190586086362600326538 
1 5 10 10 0.067415909642003363222428902190586086362600326538 
1 5 11 11 0.067415909642003363222428902190586086362600326538 
1 5 2 2 0.039356066029191491550953685418789973482489585876 
1 5 2 6 0.043540211705287393262331363530392991378903388977 
1 5 6 2 0.043540211705287393262331363530392991378903388977 
1 5 6 6 0.079703270835946374295311045443668263033032417297 
1 5 3 3 0.039356066029191491550953685418789973482489585876 
1 5 3 7 0.043540211705287393262331363530392991378903388977 
1 5 7 3 0.043540211705287393262331363530392991378903388977 
1 5 7 7 0.079703270835946374295311045443668263033032417297 
1 5 4 4 0.039356066029191491550953685418789973482489585876 
1 5 4 8 0.043540211705287393262331363530392991378903388977 
1 5 8 4 0.043540211705287393262331363530392991378903388977 
1 5 8 8 0.079703270835946374295311045443668263033032417297 
1 12 0 0 0.000000000000000000000000000000000000000000000000 
1 12 0 1 0.000000000000000000000000000000000000000000000000 
1 12 0 5 0.000000000000000000000000000000000000000000000000 
1 12 0 12 0.002056705499243978874784888333238086488563567400 
1 12 0 13 -0.000000000000000000000000629322552519495215217374 
1 12 1 0 0.000000000000000000000000000000000000000000000000 
1 12 1 1 0.000000000000000000000000000000000000000000000000 
1 12 1 5 0.000000000000000000000000000000000000000000000000 
1 12 1 12 0.035107268192732160594360379946010652929544448853 
1 12 1 13 -0.000000000000000000000000000000912033719680118273 
1 12 5 0 0.000000000000000000000000000000000000000000000000 
1 12 5 1 0.000000000000000000000000000000000000000000000000 
1 12 5 5 0.000000000000000000000000000000000000000000000000 
1 12 5 12 0.008054524430598369866274310879816766828298568726 
1 12 5 13 -0.000000000000000000000000391654156707635695079263 
1 12 12 0 0.002056705499243978874784888333238086488563567400 
1 12 12 1 0.035107268192732160594360379946010652929544448853 
1 12 12 5 0.008054524430598369866274310879816766828298568726 
1 12 12 12 0.024341737674610140762521126589490449987351894379 
1 12 12 13 0.000000000000000013573591160063418012919163014818 
1 12 13 0 -0.000000000000000000000000629322552519495215217374 
1 12 13 1 -0.000000000000000000000000000000912033719680118273 
1 12 13 5 -0.000000000000000000000000391654156707635695079263 
1 12 13 12 0.000000000000000013573591160063418012919163014818 
1 12 13 13 -0.024341737674610203212566261754545848816633224487 
1 12 9 9 -0.024341737674610227498694925429845170583575963974 
1 12 10 10 0.012170868837305105075730082830887113232165575027 
1 12 11 11 0.012170868837305105075730082830887113232165575027 
1 12 2 2 0.022924081917690096454887083154972060583531856537 
1 12 2 6 0.009645377521119768982060804773936979472637176514 
1 12 6 2 0.009645377521119768982060804773936979472637176514 
1 12 6 6 0.022476764698345641502186254001571796834468841553 
1 12 3 3 -0.011462040958845053431613969507907313527539372444 
1 12 3 7 -0.004822688760559882756306926410161395324394106865 
1 12 7 3 -0.004822688760559882756306926410161395324394106865 
1 12 7 7 -0.011238382349172848506668742629699409008026123047 
1 12 4 4 -0.011462040958845053431613969507907313527539372444 
1 12 4 8 -0.004822688760559882756306926410161395324394106865 
1 12 8 4 -0.004822688760559882756306926410161395324394106865 
1 12 8 8 -0.011238382349172848506668742629699409008026123047 
1 13 0 0 0.000000000000000000000000000000000000000000000000 
1 13 0 1 0.000000000000000000000000000000000000000000000000 
1 13 0 5 0.000000000000000000000000000000000000000000000000 
1 13 0 12 -0.000000000000000000000000629322552519495215217374 
1 13 0 13 0.002056705499243979742146626321641633694525808096 
1 13 1 0 0.000000000000000000000000000000000000000000000000 
1 13 1 1 0.000000000000000000000000000000000000000000000000 
1 13 1 5 0.000000000000000000000000000000000000000000000000 
1 13 1 12 -0.000000000000000000000000000000912033719680118273 
1 13 1 13 0.035107268192732181411042091667695785872638225555 
1 13 5 0 0.000000000000000000000000000000000000000000000000 
1 13 5 1 0.000000000000000000000000000000000000000000000000 
1 13 5 5 0.000000000000000000000000000000000000000000000000 
1 13 5 12 -0.000000000000000000000000391654156707635740997011 
1 13 5 13 0.008054524430598371600997786856623861240223050117 
1 13 12 0 -0.000000000000000000000000629322552519495215217374 
1 13 12 1 -0.000000000000000000000000000000912033719680118273 
1 13 12 5 -0.000000000000000000000000391654156707635740997011 
1 13 12 12 0.000000000000000043248625418615092640791060473210 
1 13 12 13 -0.024341737674610168518096742218403960578143596649 
1 13 13 0 0.002056705499243979742146626321641633694525808096 
1 13 13 1 0.035107268192732181411042091667695785872638225555 
1 13 13 5 0.008054524430598371600997786856623861240223050117 
1 13 13 12 -0.024341737674610168518096742218403960578143596649 
1 13 13 13 0.000000000000000000000000000000000000000000000000 
1 13 9 9 0.000000000000000000000000000000000000000000000000 
1 13 10 10 0.021080563198469199487350422828058071900159120560 
1 13 11 11 -0.021080563198469199487350422828058071900159120560 
1 13 2 2 0.000000000000000000000000000000000000000000000000 
1 13 2 6 0.000000000000000000000000000000000000000000000000 
1 13 6 2 0.000000000000000000000000000000000000000000000000 
1 13 6 6 0.000000000000000000000000000000000000000000000000 
1 13 3 3 -0.019852837299155108585768658713277545757591724396 
1 13 3 7 -0.008353141962381106788715356969987624324858188629 
1 13 7 3 -0.008353141962381106788715356969987624324858188629 
1 13 7 7 -0.019465449223652623450542265004514774773269891739 
1 13 4 4 0.019852837299155108585768658713277545757591724396 
1 13 4 8 0.008353141962381106788715356969987624324858188629 
1 13 8 4 0.008353141962381106788715356969987624324858188629 
1 13 8 8 0.019465449223652623450542265004514774773269891739 
5 0 0 0 -0.157665905801956107712413768240367062389850616455 
5 0 0 1 0.020503975859071443127445988352519634645432233810 
5 0 0 5 0.016872702769439029690801135075162164866924285889 
5 0 0 12 0.000000000000000000000000000000000000000000000000 
5 0 0 13 0.000000000000000000000000000000000000000000000000 
5 0 1 0 0.020503975859071443127445988352519634645432233810 
5 0 1 1 -0.004621777765079706709605567027665529167279601097 
5 0 1 5 -0.003735320054970653336212649264780338853597640991 
5 0 1 12 0.000000000000000000000000000000000000000000000000 
5 0 1 13 0.000000000000000000000000000000000000000000000000 
5 0 5 0 0.016872702769439029690801135075162164866924285889 
5 0 5 1 -0.003735320054970653336212649264780338853597640991 
5 0 5 5 -0.003252275959605529804391510495520378754008561373 
5 0 5 12 0.000000000000000000000000000000000000000000000000 
5 0 5 13 0.000000000000000000000000000000000000000000000000 
5 0 12 0 0.000000000000000000000000000000000000000000000000 
5 0 12 1 0.000000000000000000000000000000000000000000000000 
5 0 12 5 0.000000000000000000000000000000000000000000000000 
5 0 12 12 -0.000519022705077518131666636236332124099135398865 
5 0 12 13 -0.000000000000000008695674875598543219466172603816 
5 0 13 0 0.000000000000000000000000000000000000000000000000 
5 0 13 1 0.000000000000000000000000000000000000000000000000 
5 0 13 5 0.000000000000000000000000000000000000000000000000 
5 0 13 12 -0.000000000000000008695674875598543219466172603816 
5 0 13 13 -0.000519022705077490592931455104519500309834256768 
5 0 9 9 -0.000519022705077587737446109805716787377605214715 
5 0 10 10 -0.000519022705077587737446109805716787377605214715 
5 0 11 11 -0.000519022705077587737446109805716787377605214715 
5 0 2 2 -0.000928927536810874145481453645345482073025777936 
5 0 2 6 -0.002312575428289743821597124195932337897829711437 
5 0 6 2 -0.002312575428289743821597124195932337897829711437 
5 0 6 6 -0.006222560103077901492996115706546333967708051205 
5 0 3 3 -0.000928927536810874145481453645345482073025777936 
5 0 3 7 -0.002312575428289743821597124195932337897829711437 
5 0 7 3 -0.002312575428289743821597124195932337897829711437 
5 0 7 7 -0.006222560103077901492996115706546333967708051205 
5 0 4 4 -0.000928927536810874145481453645345482073025777936 
5 0 4 8 -0.002312575428289743821597124195932337897829711437 
5 0 8 4 -0.002312575428289743821597124195932337897829711437 
5 0 8 8 -0.006222560103077901492996115706546333967708051205 
5 1 0 0 0.182466494570107468087272195589321199804544448853 
5 1 0 1 -0.004614989638574228114631381458821124397218227386 
5 1 0 5 -0.003735320054970570069485802378039807081222534180 
5 1 0 12 0.000000000000000000000000000000000000000000000000 
5 1 0 13 0.000000000000000000000000000000000000000000000000 
5 1 1 0 -0.004614989638574228114631381458821124397218227386 
5 1 1 1 0.074244551315497397947495983316912315785884857178 
5 1 1 5 0.044608849086739135736401351550739491358399391174 
5 1 1 12 0.000000000000000000000000000000000000000000000000 
5 1 1 13 0.000000000000000000000000000000000000000000000000 
5 1 5 0 -0.003735320054970570069485802378039807081222534180 
5 1 5 1 0.044608849086739135736401351550739491358399391174 
5 1 5 5 0.046266619432556339852613547236614977009594440460 
5 1 5 12 0.000000000000000000000000000000000000000000000000 
5 1 5 13 0.000000000000000000000000000000000000000000000000 
5 1 12 0 0.000000000000000000000000000000000000000000000000 
5 1 12 1 0.000000000000000000000000000000000000000000000000 
5 1 12 5 0.000000000000000000000000000000000000000000000000 
5 1 12 12 0.067415909642003279955702055303845554590225219727 
5 1 12 13 0.000000000000000006503102238065145937756445362084 
5 1 13 0 0.000000000000000000000000000000000000000000000000 
5 1 13 1 0.000000000000000000000000000000000000000000000000 
5 1 13 5 0.000000000000000000000000000000000000000000000000 
5 1 13 12 0.000000000000000006503102238065145937756445362084 
5 1 13 13 0.067415909642003196688975208417105022817850112915 
5 1 9 9 0.067415909642003363222428902190586086362600326538 
5 1 10 10 0.067415909642003363222428902190586086362600326538 
5 1 11 11 0.067415909642003363222428902190586086362600326538 
5 1 2 2 0.039356066029191491550953685418789973482489585876 
5 1 2 6 0.043540211705287393262331363530392991378903388977 
5 1 6 2 0.043540211705287393262331363530392991378903388977 
5 1 6 6 0.079703270835946374295311045443668263033032417297 
5 1 3 3 0.039356066029191491550953685418789973482489585876 
5 1 3 7 0.043540211705287393262331363530392991378903388977 
5 1 7 3 0.043540211705287393262331363530392991378903388977 
5 1 7 7 0.079703270835946374295311045443668263033032417297 
5 1 4 4 0.039356066029191491550953685418789973482489585876 
5 1 4 8 0.043540211705287393262331363530392991378903388977 
5 1 8 4 0.043540211705287393262331363530392991378903388977 
5 1 8 8 0.079703270835946374295311045443668263033032417297 
5 5 0 0 0.377258957076209378023179397132480517029762268066 
5 5 0 1 -0.003935777680532021038928292000491637736558914185 
5 5 0 5 -0.003252275959605741006974710671784123405814170837 
5 5 0 12 0.000000000000000000000000000000000000000000000000 
5 5 0 13 0.000000000000000000000000000000000000000000000000 
5 5 1 0 -0.003935777680532021038928292000491637736558914185 
5 5 1 1 0.277050075021911257344697787630138918757438659668 
5 5 1 5 0.046266619432556721491778262134175747632980346680 
5 5 1 12 0.000000000000000000000000000000000000000000000000 
5 5 1 13 0.000000000000000000000000000000000000000000000000 
5 5 5 0 -0.003252275959605741006974710671784123405814170837 
5 5 5 1 0.046266619432556721491778262134175747632980346680 
5 5 5 5 0.238868935197183801522058388400182593613862991333 
5 5 5 12 0.000000000000000000000000000000000000000000000000 
5 5 5 13 0.000000000000000000000000000000000000000000000000 
5 5 12 0 0.000000000000000000000000000000000000000000000000 
5 5 12 1 0.000000000000000000000000000000000000000000000000 
5 5 12 5 0.000000000000000000000000000000000000000000000000 
5 5 12 12 0.273335963086728195303720667652669362723827362061 
5 5 12 13 -0.000000000000000157954646724088255679079192486747 
5 5 13 0 0.000000000000000000000000000000000000000000000000 
5 5 13 1 0.000000000000000000000000000000000000000000000000 
5 5 13 5 0.000000000000000000000000000000000000000000000000 
5 5 13 12 -0.000000000000000157954646724088255679079192486747 
5 5 13 13 0.273335963086727806725662048847880214452743530273 
5 5 9 9 0.273335963086728028770266973879188299179077148438 
5 5 10 10 0.273335963086728028770266973879188299179077148438 
5 5 11 11 0.273335963086728028770266973879188299179077148438 
5 5 2 2 0.237013860101762841026129535748623311519622802734 
5 5 2 6 0.051523479380753217649058228744252119213342666626 
5 5 6 2 0.051523479380753217649058228744252119213342666626 
5 5 6 6 0.271173775167862618484804215768235735595226287842 
5 5 3 3 0.237013860101762841026129535748623311519622802734 
5 5 3 7 0.051523479380753217649058228744252119213342666626 
5 5 7 3 0.051523479380753217649058228744252119213342666626 
5 5 7 7 0.271173775167862618484804215768235735595226287842 
5 5 4 4 0.237013860101762841026129535748623311519622802734 
5 5 4 8 0.051523479380753217649058228744252119213342666626 
5 5 8 4 0.051523479380753217649058228744252119213342666626 
5 5 8 8 0.271173775167862618484804215768235735595226287842 
5 12 0 0 0.000000000000000000000000000000000000000000000000 
5 12 0 1 0.000000000000000000000000000000000000000000000000 
5 12 0 5 0.000000000000000000000000000000000000000000000000 
5 12 0 12 0.001151331923112265459216430052435953257372602820 
5 12 0 13 -0.000000000000000000270249650079349675452794566307 
5 12 1 0 0.000000000000000000000000000000000000000000000000 
5 12 1 1 0.000000000000000000000000000000000000000000000000 
5 12 1 5 0.000000000000000000000000000000000000000000000000 
5 12 1 12 0.008054524430598373335721262833430955652147531509 
5 12 1 13 -0.000000000000000000000000391654156707635695079263 
5 12 5 0 0.000000000000000000000000000000000000000000000000 
5 12 5 1 0.000000000000000000000000000000000000000000000000 
5 12 5 5 0.000000000000000000000000000000000000000000000000 
5 12 5 12 0.007490501684799547033044575528037967160344123840 
5 12 5 13 -0.000000000000000000168187836870954167054412590879 
5 12 12 0 0.001151331923112265459216430052435953257372602820 
5 12 12 1 0.008054524430598373335721262833430955652147531509 
5 12 12 5 0.007490501684799547033044575528037967160344123840 
5 12 12 12 0.005065817439558084611661570306750945746898651123 
5 12 12 13 0.000000000000000046572987288954639283197055000696 
5 12 13 0 -0.000000000000000000270249650079349675452794566307 
5 12 13 1 -0.000000000000000000000000391654156707635695079263 
5 12 13 5 -0.000000000000000000168187836870954167054412590879 
5 12 13 12 0.000000000000000046572987288954639283197055000696 
5 12 13 13 -0.005065817439557940629613064231762109557166695595 
5 12 9 9 -0.005065817439558037774127718932959396624937653542 
5 12 10 10 0.002532908719779043173192523141779020079411566257 
5 12 11 11 0.002532908719779043173192523141779020079411566257 
5 12 2 2 0.001566787177404613609632555437656264984980225563 
5 12 2 6 0.007173180421558735322951072532760008471086621284 
5 12 6 2 0.007173180421558735322951072532760008471086621284 
5 12 6 6 0.008084594417502114979678928818884742213413119316 
5 12 3 3 -0.000783393588702294553331728632628028208273462951 
5 12 3 7 -0.003586590210779400621221579825714798062108457088 
5 12 7 3 -0.003586590210779400621221579825714798062108457088 
5 12 7 7 -0.004042297208751103460011577794830373022705316544 
5 12 4 4 -0.000783393588702294553331728632628028208273462951 
5 12 4 8 -0.003586590210779400621221579825714798062108457088 
5 12 8 4 -0.003586590210779400621221579825714798062108457088 
5 12 8 8 -0.004042297208751103460011577794830373022705316544 
5 13 0 0 0.000000000000000000000000000000000000000000000000 
5 13 0 1 0.000000000000000000000000000000000000000000000000 
5 13 0 5 0.000000000000000000000000000000000000000000000000 
5 13 0 12 -0.000000000000000000270249650079349675452794566307 
5 13 0 13 0.001151331923112265892897299046637726860353723168 
5 13 1 0 0.000000000000000000000000000000000000000000000000 
5 13 1 1 0.000000000000000000000000000000000000000000000000 
5 13 1 5 0.000000000000000000000000000000000000000000000000 
5 13 1 12 -0.000000000000000000000000391654156707635695079263 
5 13 1 13 0.008054524430598375070444738810238050064072012901 
5 13 5 0 0.000000000000000000000000000000000000000000000000 
5 13 5 1 0.000000000000000000000000000000000000000000000000 
5 13 5 5 0.000000000000000000000000000000000000000000000000 
5 13 5 12 -0.000000000000000000168187836870954142980288286039 
5 13 5 13 0.007490501684799552237215003458459250396117568016 
5 13 12 0 -0.000000000000000000270249650079349675452794566307 
5 13 12 1 -0.000000000000000000000000391654156707635695079263 
5 13 12 5 -0.000000000000000000168187836870954142980288286039 
5 13 12 12 0.000000000000000047639123666025614682685863505366 
5 13 12 13 -0.005065817439557926751825256417305354261770844460 
5 13 13 0 0.001151331923112265892897299046637726860353723168 
5 13 13 1 0.008054524430598375070444738810238050064072012901 
5 13 13 5 0.007490501684799552237215003458459250396117568016 
5 13 13 12 -0.005065817439557926751825256417305354261770844460 
5 13 13 13 0.000000000000000000000000000000000000000000000000 
5 13 9 9 0.000000000000000000000000000000000000000000000000 
5 13 10 10 0.004387126593591457977827641201429287320934236050 
5 13 11 11 -0.004387126593591457977827641201429287320934236050 
5 13 2 2 0.000000000000000000000000000000000000000000000000 
5 13 2 6 0.000000000000000000000000000000000000000000000000 
5 13 6 2 0.000000000000000000000000000000000000000000000000 
5 13 6 6 0.000000000000000000000000000000000000000000000000 
5 13 3 3 -0.001356877497956104124815501776879500539507716894 
5 13 3 7 -0.006212156470999070402572161953003160306252539158 
5 13 7 3 -0.006212156470999070402572161953003160306252539158 
5 13 7 7 -0.007001464144850615654858128067417055717669427395 
5 13 4 4 0.001356877497956104124815501776879500539507716894 
5 13 4 8 0.006212156470999070402572161953003160306252539158 
5 13 8 4 0.006212156470999070402572161953003160306252539158 
5 13 8 8 0.007001464144850615654858128067417055717669427395 
12 0 0 0 0.000000000000000000000000000000000000000000000000 
12 0 0 1 0.000000000000000000000000000000000000000000000000 
12 0 0 5 0.000000000000000000000000000000000000000000000000 
12 0 0 12 0.000438442374026525233995238428619245496520306915 
12 0 0 13 -0.000000000000000000434245868945021096040146644740 
12 0 1 0 0.000000000000000000000000000000000000000000000000 
12 0 1 1 0.000000000000000000000000000000000000000000000000 
12 0 1 5 0.000000000000000000000000000000000000000000000000 
12 0 1 12 0.002056705499243979308465757327439860091544687748 
12 0 1 13 -0.000000000000000000000000629322552519495215217374 
12 0 5 0 0.000000000000000000000000000000000000000000000000 
12 0 5 1 0.000000000000000000000000000000000000000000000000 
12 0 5 5 0.000000000000000000000000000000000000000000000000 
12 0 5 12 0.001151331923112265676056864549536840058863162994 
12 0 5 13 -0.000000000000000000270249650079349675452794566307 
12 0 12 0 0.000438442374026525233995238428619245496520306915 
12 0 12 1 0.002056705499243979308465757327439860091544687748 
12 0 12 5 0.001151331923112265676056864549536840058863162994 
12 0 12 12 0.001265207909709093175160132815904034941922873259 
12 0 12 13 0.000000000000000000000000269207405524659368414520 
12 0 13 0 -0.000000000000000000434245868945021096040146644740 
12 0 13 1 -0.000000000000000000000000629322552519495215217374 
12 0 13 5 -0.000000000000000000270249650079349675452794566307 
12 0 13 12 0.000000000000000000000000269207405524659368414520 
12 0 13 13 -0.001265207909709086236266228908675657294224947691 
12 0 9 9 -0.001265207909709093175160132815904034941922873259 
12 0 10 10 0.000632603954854544961276807679695366459782235324 
12 0 11 11 0.000632603954854544961276807679695366459782235324 
12 0 2 2 0.001137109704055833028085720215472065319772809744 
12 0 2 6 0.001309123101583478101725410702727003808831796050 
12 0 6 2 0.001309123101583478101725410702727003808831796050 
12 0 6 6 0.002650197938299823224861384574069234076887369156 
12 0 3 3 -0.000568554852027916297202425610635145858395844698 
12 0 3 7 -0.000654561550791739159282922599913945305161178112 
12 0 7 3 -0.000654561550791739159282922599913945305161178112 
12 0 7 7 -0.001325098969149916382920251223254126671236008406 
12 0 4 4 -0.000568554852027916297202425610635145858395844698 
12 0 4 8 -0.000654561550791739159282922599913945305161178112 
12 0 8 4 -0.000654561550791739159282922599913945305161178112 
12 0 8 8 -0.001325098969149916382920251223254126671236008406 
12 1 0 0 0.000000000000000000000000000000000000000000000000 
12 1 0 1 0.000000000000000000000000000000000000000000000000 
12 1 0 5 0.000000000000000000000000000000000000000000000000 
12 1 0 12 0.002056705499243978874784888333238086488563567400 
12 1 0 13 -0.000000000000000000000000629322552519495215217374 
12 1 1 0 0.000000000000000000000000000000000000000000000000 
12 1 1 1 0.000000000000000000000000000000000000000000000000 
12 1 1 5 0.000000000000000000000000000000000000000000000000 
12 1 1 12 0.035107268192732160594360379946010652929544448853 
12 1 1 13 -0.000000000000000000000000000000912033719680118273 
12 1 5 0 0.000000000000000000000000000000000000000000000000 
12 1 5 1 0.000000000000000000000000000000000000000000000000 
12 1 5 5 0.000000000000000000000000000000000000000000000000 
12 1 5 12 0.008054524430598369866274310879816766828298568726 
12 1 5 13 -0.000000000000000000000000391654156707635695079263 
12 1 12 0 0.002056705499243978874784888333238086488563567400 
12 1 12 1 0.035107268192732160594360379946010652929544448853 
12 1 12 5 0.008054524430598369866274310879816766828298568726 
12 1 12 12 0.024341737674610140762521126589490449987351894379 
12 1 12 13 0.000000000000000013573591160063418012919163014818 
12 1 13 0 -0.000000000000000000000000629322552519495215217374 
12 1 13 1 -0.000000000000000000000000000000912033719680118273 
12 1 13 5 -0.000000000000000000000000391654156707635695079263 
12 1 13 12 0.000000000000000013573591160063418012919163014818 
12 1 13 13 -0.024341737674610203212566261754545848816633224487 
12 1 9 9 -0.024341737674610227498694925429845170583575963974 
12 1 10 10 0.012170868837305105075730082830887113232165575027 
12 1 11 11 0.012170868837305105075730082830887113232165575027 
12 1 2 2 0.022924081917690096454887083154972060583531856537 
12 1 2 6 0.009645377521119768982060804773936979472637176514 
12 1 6 2 0.009645377521119768982060804773936979472637176514 
12 1 6 6 0.022476764698345641502186254001571796834468841553 
12 1 3 3 -0.011462040958845053431613969507907313527539372444 
12 1 3 7 -0.004822688760559882756306926410161395324394106865 
12 1 7 3 -0.004822688760559882756306926410161395324394106865 
12 1 7 7 -0.011238382349172848506668742629699409008026123047 
12 1 4 4 -0.011462040958845053431613969507907313527539372444 
12 1 4 8 -0.004822688760559882756306926410161395324394106865 
12 1 8 4 -0.004822688760559882756306926410161395324394106865 
12 1 8 8 -0.011238382349172848506668742629699409008026123047 
12 5 0 0 0.000000000000000000000000000000000000000000000000 
12 5 0 1 0.000000000000000000000000000000000000000000000000 
12 5 0 5 0.000000000000000000000000000000000000000000000000 
12 5 0 12 0.001151331923112265459216430052435953257372602820 
12 5 0 13 -0.000000000000000000270249650079349675452794566307 
12 5 1 0 0.000000000000000000000000000000000000000000000000 
12 5 1 1 0.000000000000000000000000000000000000000000000000 
12 5 1 5 0.000000000000000000000000000000000000000000000000 
12 5 1 12 0.008054524430598373335721262833430955652147531509 
12 5 1 13 -0.000000000000000000000000391654156707635695079263 
12 5 5 0 0.000000000000000000000000000000000000000000000000 
12 5 5 1 0.000000000000000000000000000000000000000000000000 
12 5 5 5 0.000000000000000000000000000000000000000000000000 
12 5 5 12 0.007490501684799547033044575528037967160344123840 
12 5 5 13 -0.000000000000000000168187836870954167054412590879 
12 5 12 0 0.001151331923112265459216430052435953257372602820 
12 5 12 1 0.008054524430598373335721262833430955652147531509 
12 5 12 5 0.007490501684799547033044575528037967160344123840 
12 5 12 12 0.005065817439558084611661570306750945746898651123 
12 5 12 13 0.000000000000000046572987288954639283197055000696 
12 5 13 0 -0.000000000000000000270249650079349675452794566307 
12 5 13 1 -0.000000000000000000000000391654156707635695079263 
12 5 13 5 -0.000000000000000000168187836870954167054412590879 
12 5 13 12 0.000000000000000046572987288954639283197055000696 
12 5 13 13 -0.005065817439557940629613064231762109557166695595 
12 5 9 9 -0.005065817439558037774127718932959396624937653542 
12 5 10 10 0.002532908719779043173192523141779020079411566257 
12 5 11 11 0.002532908719779043173192523141779020079411566257 
12 5 2 2 0.001566787177404613609632555437656264984980225563 
12 5 2 6 0.007173180421558735322951072532760008471086621284 
12 5 6 2 0.007173180421558735322951072532760008471086621284 
12 5 6 6 0.008084594417502114979678928818884742213413119316 
12 5 3 3 -0.000783393588702294553331728632628028208273462951 
12 5 3 7 -0.003586590210779400621221579825714798062108457088 
12 5 7 3 -0.003586590210779400621221579825714798062108457088 
12 5 7 7 -0.004042297208751103460011577794830373022705316544 
12 5 4 4 -0.000783393588702294553331728632628028208273462951 
12 5 4 8 -0.003586590210779400621221579825714798062108457088 
12 5 8 4 -0.003586590210779400621221579825714798062108457088 
12 5 8 8 -0.004042297208751103460011577794830373022705316544 
12 12 0 0 0.415087895806507789497885596574633382260799407959 
12 12 0 1 -0.000576560959790785310108418570962385274469852448 
12 12 0 5 -0.000519022705077518131666636236332124099135398865 
12 12 0 12 0.001265207909709093175160132815904034941922873259 
12 12 0 13 -0.000000000000000000104248461219054045023605988649 
12 12 1 0 -0.000576560959790785310108418570962385274469852448 
12 12 1 1 0.341971470788392739592609359533526003360748291016 
12 12 1 5 0.067415909642003279955702055303845554590225219727 
12 12 1 12 0.024341737674610140762521126589490449987351894379 
12 12 1 13 0.000000000000000043248625418615092640791060473210 
12 12 5 0 -0.000519022705077518131666636236332124099135398865 
12 12 5 1 0.067415909642003279955702055303845554590225219727 
12 12 5 5 0.273335963086728195303720667652669362723827362061 
12 12 5 12 0.005065817439558084611661570306750945746898651123 
12 12 5 13 0.000000000000000047639123666025614682685863505366 
12 12 12 0 0.001265207909709093175160132815904034941922873259 
12 12 12 1 0.024341737674610140762521126589490449987351894379 
12 12 12 5 0.005065817439558084611661570306750945746898651123 
12 12 12 12 0.375180055056102745858481739560374990105628967285 
12 12 12 13 -0.000000000000000097144514654701221938971059114566 
12 12 13 0 -0.000000000000000000104248461219054045023605988649 
12 12 13 1 0.000000000000000043248625418615092640791060473210 
12 12 13 5 0.000000000000000047639123666025614682685863505366 
12 12 13 12 -0.000000000000000097144514654701221938971059114566 
12 12 13 13 0.331272520228576450307400591555051505565643310547 
12 12 9 9 0.331272520228576394796249360297224484384059906006 
12 12 10 10 0.347000592405600827294875898587633855640888214111 
12 12 11 11 0.347000592405600827294875898587633855640888214111 
12 12 2 2 0.296875367251474009400169506989186629652976989746 
12 12 2 6 0.085079696662082426872331097911228425800800323486 
12 12 6 2 0.085079696662082426872331097911228425800800323486 
12 12 6 6 0.333486979477175704555946822438272647559642791748 
12 12 3 3 0.273001614261026037677737576814251951873302459717 
12 12 3 7 0.075548161695354026923254764369630720466375350952 
12 12 7 3 0.075548161695354026923254764369630720466375350952 
12 12 7 7 0.311597372905828839950714836959377862513065338135 
12 12 4 4 0.273001614261026037677737576814251951873302459717 
12 12 4 8 0.075548161695354026923254764369630720466375350952 
12 12 8 4 0.075548161695354026923254764369630720466375350952 
12 12 8 8 0.311597372905828784439563605701550841331481933594 
12 13 0 0 -0.000000000000000013922142739105391384149784115835 
12 13 0 1 0.000000000000000003716521905776502388637485815505 
12 13 0 5 -0.000000000000000008695674875598543219466172603816 
12 13 0 12 0.000000000000000000000000269207405524659368414520 
12 13 0 13 -0.001265207909709082983659711452162355271866545081 
12 13 1 0 0.000000000000000003716521905776502388637485815505 
12 13 1 1 -0.000000000000000000115101886125814097512054001398 
12 13 1 5 0.000000000000000006503102238065144397012489852296 
12 13 1 12 0.000000000000000013573591160063418012919163014818 
12 13 1 13 -0.024341737674610168518096742218403960578143596649 
12 13 5 0 -0.000000000000000008695674875598543219466172603816 
12 13 5 1 0.000000000000000006503102238065144397012489852296 
12 13 5 5 -0.000000000000000157954646724088280330982480643366 
12 13 5 12 0.000000000000000046572987288954639283197055000696 
12 13 5 13 -0.005065817439557932823357422336130184703506529331 
12 13 12 0 0.000000000000000000000000269207405524659368414520 
12 13 12 1 0.000000000000000013573591160063418012919163014818 
12 13 12 5 0.000000000000000046572987288954639283197055000696 
12 13 12 12 -0.000000000000000097144514654701221938971059114566 
12 13 12 13 0.021953767413763237981161324796630651690065860748 
12 13 13 0 -0.001265207909709082983659711452162355271866545081 
12 13 13 1 -0.024341737674610168518096742218403960578143596649 
12 13 13 5 -0.005065817439557932823357422336130184703506529331 
12 13 13 12 0.021953767413763237981161324796630651690065860748 
12 13 13 13 -0.000000000000000013877787807814465999759128909867 
12 13 9 9 0.000000000000000013877787807814465999759128909867 
12 13 10 10 -0.009080606705238905215771261225654598092660307884 
12 13 11 11 0.009080606705238932971346876854568108683452010155 
12 13 2 2 0.000000000000000002052737702369537585989572173546 
12 13 2 6 -0.000000000000000000359651725791937630465464741585 
12 13 6 2 -0.000000000000000000359651725791937630465464741585 
12 13 6 6 -0.000000000000000035978704758323513146194414179816 
12 13 3 3 0.013783517715601774356048991876377840526401996613 
12 13 3 7 0.005503034278830943107352346999050496378913521767 
12 13 7 3 0.005503034278830943107352346999050496378913521767 
12 13 7 7 0.012637970246422169234845611640594142954796552658 
12 13 4 4 -0.013783517715601767417155087969149462878704071045 
12 13 4 8 -0.005503034278830963924034058720735629322007298470 
12 13 8 4 -0.005503034278830963924034058720735629322007298470 
12 13 8 8 -0.012637970246422193520974275315893464721739292145 
13 0 0 0 0.000000000000000000000000000000000000000000000000 
13 0 0 1 0.000000000000000000000000000000000000000000000000 
13 0 0 5 0.000000000000000000000000000000000000000000000000 
13 0 0 12 -0.000000000000000000434245868945021096040146644740 
13 0 0 13 0.000438442374026525017154803931518358695029746741 
13 0 1 0 0.000000000000000000000000000000000000000000000000 
13 0 1 1 0.000000000000000000000000000000000000000000000000 
13 0 1 5 0.000000000000000000000000000000000000000000000000 
13 0 1 12 -0.000000000000000000000000629322552519495123381878 
13 0 1 13 0.002056705499243980175827495315843407297506928444 
13 0 5 0 0.000000000000000000000000000000000000000000000000 
13 0 5 1 0.000000000000000000000000000000000000000000000000 
13 0 5 5 0.000000000000000000000000000000000000000000000000 
13 0 5 12 -0.000000000000000000270249650079349675452794566307 
13 0 5 13 0.001151331923112265892897299046637726860353723168 
13 0 12 0 -0.000000000000000000434245868945021096040146644740 
13 0 12 1 -0.000000000000000000000000629322552519495123381878 
13 0 12 5 -0.000000000000000000270249650079349675452794566307 
13 0 12 12 -0.000000000000000000104248461219054045023605988649 
13 0 12 13 -0.001265207909709082983659711452162355271866545081 
13 0 13 0 0.000438442374026525017154803931518358695029746741 
13 0 13 1 0.002056705499243980175827495315843407297506928444 
13 0 13 5 0.001151331923112265892897299046637726860353723168 
13 0 13 12 -0.001265207909709082983659711452162355271866545081 
13 0 13 13 0.000000000000000000000000000000000000000000000000 
13 0 9 9 0.000000000000000000000000000000000000000000000000 
13 0 10 10 0.001095702190877084584996747906870950828306376934 
13 0 11 11 -0.001095702190877084584996747906870950828306376934 
13 0 2 2 0.000000000000000000000000000000000000000000000000 
13 0 2 6 0.000000000000000000000000000000000000000000000000 
13 0 6 2 0.000000000000000000000000000000000000000000000000 
13 0 6 6 0.000000000000000000000000000000000000000000000000 
13 0 3 3 -0.000984765890602156334851513541650547267636284232 
13 0 3 7 -0.001133733862652370159851411557383471517823636532 
13 0 7 3 -0.001133733862652370159851411557383471517823636532 
13 0 7 7 -0.002295138739624791486548804897438458283431828022 
13 0 4 4 0.000984765890602156334851513541650547267636284232 
13 0 4 8 0.001133733862652370159851411557383471517823636532 
13 0 8 4 0.001133733862652370159851411557383471517823636532 
13 0 8 8 0.002295138739624791486548804897438458283431828022 
13 1 0 0 0.000000000000000000000000000000000000000000000000 
13 1 0 1 0.000000000000000000000000000000000000000000000000 
13 1 0 5 0.000000000000000000000000000000000000000000000000 
13 1 0 12 -0.000000000000000000000000629322552519495215217374 
13 1 0 13 0.002056705499243979742146626321641633694525808096 
13 1 1 0 0.000000000000000000000000000000000000000000000000 
13 1 1 1 0.000000000000000000000000000000000000000000000000 
13 1 1 5 0.000000000000000000000000000000000000000000000000 
13 1 1 12 -0.000000000000000000000000000000912033719680118273 
13 1 1 13 0.035107268192732181411042091667695785872638225555 
13 1 5 0 0.000000000000000000000000000000000000000000000000 
13 1 5 1 0.000000000000000000000000000000000000000000000000 
13 1 5 5 0.000000000000000000000000000000000000000000000000 
13 1 5 12 -0.000000000000000000000000391654156707635740997011 
13 1 5 13 0.008054524430598371600997786856623861240223050117 
13 1 12 0 -0.000000000000000000000000629322552519495215217374 
13 1 12 1 -0.000000000000000000000000000000912033719680118273 
13 1 12 5 -0.000000000000000000000000391654156707635740997011 
13 1 12 12 0.000000000000000043248625418615092640791060473210 
13 1 12 13 -0.024341737674610168518096742218403960578143596649 
13 1 13 0 0.002056705499243979742146626321641633694525808096 
13 1 13 1 0.035107268192732181411042091667695785872638225555 
13 1 13 5 0.008054524430598371600997786856623861240223050117 
13 1 13 12 -0.024341737674610168518096742218403960578143596649 
13 1 13 13 0.000000000000000000000000000000000000000000000000 
13 1 9 9 0.000000000000000000000000000000000000000000000000 
13 1 10 10 0.021080563198469199487350422828058071900159120560 
13 1 11 11 -0.021080563198469199487350422828058071900159120560 
13 1 2 2 0.000000000000000000000000000000000000000000000000 
13 1 2 6 0.000000000000000000000000000000000000000000000000 
13 1 6 2 0.000000000000000000000000000000000000000000000000 
13 1 6 6 0.000000000000000000000000000000000000000000000000 
13 1 3 3 -0.019852837299155108585768658713277545757591724396 
13 1 3 7 -0.008353141962381106788715356969987624324858188629 
13 1 7 3 -0.008353141962381106788715356969987624324858188629 
13 1 7 7 -0.019465449223652623450542265004514774773269891739 
13 1 4 4 0.019852837299155108585768658713277545757591724396 
13 1 4 8 0.008353141962381106788715356969987624324858188629 
13 1 8 4 0.008353141962381106788715356969987624324858188629 
13 1 8 8 0.019465449223652623450542265004514774773269891739 
13 5 0 0 0.000000000000000000000000000000000000000000000000 
13 5 0 1 0.000000000000000000000000000000000000000000000000 
13 5 0 5 0.000000000000000000000000000000000000000000000000 
13 5 0 12 -0.000000000000000000270249650079349675452794566307 
13 5 0 13 0.001151331923112265892897299046637726860353723168 
13 5 1 0 0.000000000000000000000000000000000000000000000000 
13 5 1 1 0.000000000000000000000000000000000000000000000000 
13 5 1 5 0.000000000000000000000000000000000000000000000000 
13 5 1 12 -0.000000000000000000000000391654156707635695079263 
13 5 1 13 0.008054524430598375070444738810238050064072012901 
13 5 5 0 0.000000000000000000000000000000000000000000000000 
13 5 5 1 0.000000000000000000000000000000000000000000000000 
13 5 5 5 0.000000000000000000000000000000000000000000000000 
13 5 5 12 -0.000000000000000000168187836870954142980288286039 
13 5 5 13 0.007490501684799552237215003458459250396117568016 
13 5 12 0 -0.000000000000000000270249650079349675452794566307 
13 5 12 1 -0.000000000000000000000000391654156707635695079263 
13 5 12 5 -0.000000000000000000168187836870954142980288286039 
13 5 12 12 0.000000000000000047639123666025614682685863505366 
13 5 12 13 -0.005065817439557926751825256417305354261770844460 
13 5 13 0 0.001151331923112265892897299046637726860353723168 
13 5 13 1 0.008054524430598375070444738810238050064072012901 
13 5 13 5 0.007490501684799552237215003458459250396117568016 
13 5 13 12 -0.005065817439557926751825256417305354261770844460 
13 5 13 13 0.000000000000000000000000000000000000000000000000 
13 5 9 9 0.000000000000000000000000000000000000000000000000 
13 5 10 10 0.004387126593591457977827641201429287320934236050 
13 5 11 11 -0.004387126593591457977827641201429287320934236050 
13 5 2 2 0.000000000000000000000000000000000000000000000000 
13 5 2 6 0.000000000000000000000000000000000000000000000000 
13 5 6 2 0.000000000000000000000000000000000000000000000000 
13 5 6 6 0.000000000000000000000000000000000000000000000000 
13 5 3 3 -0.001356877497956104124815501776879500539507716894 
13 5 3 7 -0.006212156470999070402572161953003160306252539158 
13 5 7 3 -0.006212156470999070402572161953003160306252539158 
13 5 7 7 -0.007001464144850615654858128067417055717669427395 
13 5 4 4 0.001356877497956104124815501776879500539507716894 
13 5 4 8 0.006212156470999070402572161953003160306252539158 
13 5 8 4 0.006212156470999070402572161953003160306252539158 
13 5 8 8 0.007001464144850615654858128067417055717669427395 
13 12 0 0 -0.000000000000000013922142739105391384149784115835 
13 12 0 1 0.000000000000000003716521905776502388637485815505 
13 12 0 5 -0.000000000000000008695674875598543219466172603816 
13 12 0 12 0.000000000000000000000000269207405524659368414520 
13 12 0 13 -0.001265207909709082983659711452162355271866545081 
13 12 1 0 0.000000000000000003716521905776502388637485815505 
13 12 1 1 -0.000000000000000000115101886125814097512054001398 
13 12 1 5 0.000000000000000006503102238065144397012489852296 
13 12 1 12 0.000000000000000013573591160063418012919163014818 
13 12 1 13 -0.024341737674610168518096742218403960578143596649 
13 12 5 0 -0.000000000000000008695674875598543219466172603816 
13 12 5 1 0.000000000000000006503102238065144397012489852296 
13 12 5 5 -0.000000000000000157954646724088280330982480643366 
13 12 5 12 0.000000000000000046572987288954639283197055000696 
13 12 5 13 -0.005065817439557932823357422336130184703506529331 
13 12 12 0 0.000000000000000000000000269207405524659368414520 
13 12 12 1 0.000000000000000013573591160063418012919163014818 
13 12 12 5 0.000000000000000046572987288954639283197055000696 
13 12 12 12 -0.000000000000000097144514654701221938971059114566 
13 12 12 13 0.021953767413763237981161324796630651690065860748 
13 12 13 0 -0.001265207909709082983659711452162355271866545081 
13 12 13 1 -0.024341737674610168518096742218403960578143596649 
13 12 13 5 -0.005065817439557932823357422336130184703506529331 
13 12 13 12 0.021953767413763237981161324796630651690065860748 
13 12 13 13 -0.000000000000000013877787807814465999759128909867 
13 12 9 9 0.000000000000000013877787807814465999759128909867 
13 12 10 10 -0.009080606705238905215771261225654598092660307884 
13 12 11 11 0.009080606705238932971346876854568108683452010155 
13 12 2 2 0.000000000000000002052737702369537585989572173546 
13 12 2 6 -0.000000000000000000359651725791937630465464741585 
13 12 6 2 -0.000000000000000000359651725791937630465464741585 
13 12 6 6 -0.000000000000000035978704758323513146194414179816 
13 12 3 3 0.013783517715601774356048991876377840526401996613 
13 12 3 7 0.005503034278830943107352346999050496378913521767 
13 12 7 3 0.005503034278830943107352346999050496378913521767 
13 12 7 7 0.012637970246422169234845611640594142954796552658 
13 12 4 4 -0.013783517715601767417155087969149462878704071045 
13 12 4 8 -0.005503034278830963924034058720735629322007298470 
13 12 8 4 -0.005503034278830963924034058720735629322007298470 
13 12 8 8 -0.012637970246422193520974275315893464721739292145 
13 13 0 0 0.415087895806507956031339290348114445805549621582 
13 13 0 1 -0.000576560959790792249002322478190762922167778015 
13 13 0 5 -0.000519022705077407109364173720678081735968589783 
13 13 0 12 -0.001265207909709086236266228908675657294224947691 
13 13 0 13 0.000000000000000000000000000000000000000000000000 
13 13 1 0 -0.000576560959790792249002322478190762922167778015 
13 13 1 1 0.341971470788392795103760590791353024542331695557 
13 13 1 5 0.067415909642003113422248361530364491045475006104 
13 13 1 12 -0.024341737674610199743119309800931659992784261703 
13 13 1 13 0.000000000000000000000000000000000000000000000000 
13 13 5 0 -0.000519022705077407109364173720678081735968589783 
13 13 5 1 0.067415909642003113422248361530364491045475006104 
13 13 5 5 0.273335963086727973259115742621361277997493743896 
13 13 5 12 -0.005065817439557952772677396069411770440638065338 
13 13 5 13 0.000000000000000000000000000000000000000000000000 
13 13 12 0 -0.001265207909709086236266228908675657294224947691 
13 13 12 1 -0.024341737674610199743119309800931659992784261703 
13 13 12 5 -0.005065817439557952772677396069411770440638065338 
13 13 12 12 0.331272520228576450307400591555051505565643310547 
13 13 12 13 -0.000000000000000013877787807814465999759128909867 
13 13 13 0 0.000000000000000000000000000000000000000000000000 
13 13 13 1 0.000000000000000000000000000000000000000000000000 
13 13 13 5 0.000000000000000000000000000000000000000000000000 
13 13 13 12 -0.000000000000000013877787807814465999759128909867 
13 13 13 13 0.375180055056103189947691589622991159558296203613 
13 13 9 9 0.352243283131275730646336796780815348029136657715 
13 13 10 10 0.336515210954251298147710258490405976772308349609 
13 13 11 11 0.336515210954251298147710258490405976772308349609 
13 13 2 2 0.265043696597543398940644010508549399673938751221 
13 13 2 6 0.072370983373111236192087858398735988885164260864 
13 13 6 2 0.072370983373111236192087858398735988885164260864 
13 13 6 6 0.304300837382046718282424535573227331042289733887 
13 13 3 3 0.288917449587991426174227171941311098635196685791 
13 13 3 7 0.081902518339839691652315423198160715401172637939 
13 13 7 3 0.081902518339839691652315423198160715401172637939 
13 13 7 7 0.326190443953393638398807752309949137270450592041 
13 13 4 4 0.288917449587991426174227171941311098635196685791 
13 13 4 8 0.081902518339839691652315423198160715401172637939 
13 13 8 4 0.081902518339839691652315423198160715401172637939 
13 13 8 8 0.326190443953393638398807752309949137270450592041 
9 9 0 0 0.415087895806507789497885596574633382260799407959 
9 9 0 1 -0.000576560959790799187896226385419140569865703583 
9 9 0 5 -0.000519022705077490376091020607418613508343696594 
9 9 0 12 -0.001265207909709093175160132815904034941922873259 
9 9 0 13 0.000000000000000000000000000000000000000000000000 
9 9 1 0 -0.000576560959790799187896226385419140569865703583 
9 9 1 1 0.341971470788392739592609359533526003360748291016 
9 9 1 5 0.067415909642003279955702055303845554590225219727 
9 9 1 12 -0.024341737674610224029247973476230981759727001190 
9 9 1 13 0.000000000000000000000000000000000000000000000000 
9 9 5 0 -0.000519022705077490376091020607418613508343696594 
9 9 5 1 0.067415909642003279955702055303845554590225219727 
9 9 5 5 0.273335963086728084281418205137015320360660552979 
9 9 5 12 -0.005065817439558056856085954677837435156106948853 
9 9 5 13 0.000000000000000000000000000000000000000000000000 
9 9 12 0 -0.001265207909709093175160132815904034941922873259 
9 9 12 1 -0.024341737674610224029247973476230981759727001190 
9 9 12 5 -0.005065817439558056856085954677837435156106948853 
9 9 12 12 0.331272520228576394796249360297224484384059906006 
9 9 12 13 0.000000000000000013877787807814465999759128909867 
9 9 13 0 0.000000000000000000000000000000000000000000000000 
9 9 13 1 0.000000000000000000000000000000000000000000000000 
9 9 13 5 0.000000000000000000000000000000000000000000000000 
9 9 13 12 0.000000000000000013877787807814465999759128909867 
9 9 13 13 0.352243283131275730646336796780815348029136657715 
9 9 9 9 0.375180055056103134436540358365164138376712799072 
9 9 10 10 0.336515210954251298147710258490405976772308349609 
9 9 11 11 0.336515210954251298147710258490405976772308349609 
9 9 2 2 0.265043696597543454451795241766376420855522155762 
9 9 2 6 0.072370983373111180680936627140908967703580856323 
9 9 6 2 0.072370983373111180680936627140908967703580856323 
9 9 6 6 0.304300837382046662771273304315400309860706329346 
9 9 3 3 0.288917449587991481685378403199138119816780090332 
9 9 3 7 0.081902518339839580630012960682506673038005828857 
9 9 7 3 0.081902518339839580630012960682506673038005828857 
9 9 7 7 0.326190443953393693909958983567776158452033996582 
9 9 4 4 0.288917449587991481685378403199138119816780090332 
9 9 4 8 0.081902518339839580630012960682506673038005828857 
9 9 8 4 0.081902518339839580630012960682506673038005828857 
9 9 8 8 0.326190443953393693909958983567776158452033996582 
10 10 0 0 0.415087895806507789497885596574633382260799407959 
10 10 0 1 -0.000576560959790799187896226385419140569865703583 
10 10 0 5 -0.000519022705077490376091020607418613508343696594 
10 10 0 12 0.000632603954854544961276807679695366459782235324 
10 10 0 13 0.001095702190877084584996747906870950828306376934 
10 10 1 0 -0.000576560959790799187896226385419140569865703583 
10 10 1 1 0.341971470788392739592609359533526003360748291016 
10 10 1 5 0.067415909642003279955702055303845554590225219727 
10 10 1 12 0.012170868837305105075730082830887113232165575027 
10 10 1 13 0.021080563198469199487350422828058071900159120560 
10 10 5 0 -0.000519022705077490376091020607418613508343696594 
10 10 5 1 0.067415909642003279955702055303845554590225219727 
10 10 5 5 0.273335963086728084281418205137015320360660552979 
10 10 5 12 0.002532908719779049244724689060603850521147251129 
10 10 5 13 0.004387126593591459712551117178236381732858717442 
10 10 12 0 0.000632603954854544961276807679695366459782235324 
10 10 12 1 0.012170868837305105075730082830887113232165575027 
10 10 12 5 0.002532908719779049244724689060603850521147251129 
10 10 12 12 0.347000592405600827294875898587633855640888214111 
10 10 12 13 -0.009080606705238905215771261225654598092660307884 
10 10 13 0 0.001095702190877084584996747906870950828306376934 
10 10 13 1 0.021080563198469199487350422828058071900159120560 
10 10 13 5 0.004387126593591459712551117178236381732858717442 
10 10 13 12 -0.009080606705238905215771261225654598092660307884 
10 10 13 13 0.336515210954251298147710258490405976772308349609 
10 10 9 9 0.336515210954251298147710258490405976772308349609 
10 10 10 10 0.375180055056103134436540358365164138376712799072 
10 10 11 11 0.336515210954251298147710258490405976772308349609 
10 10 2 2 0.288917449587991481685378403199138119816780090332 
10 10 2 6 0.081902518339839580630012960682506673038005828857 
10 10 6 2 0.081902518339839580630012960682506673038005828857 
10 10 6 6 0.326190443953393693909958983567776158452033996582 
10 10 3 3 0.265043696597543454451795241766376420855522155762 
10 10 3 7 0.072370983373111180680936627140908967703580856323 
10 10 7 3 0.072370983373111180680936627140908967703580856323 
10 10 7 7 0.304300837382046662771273304315400309860706329346 
10 10 4 4 0.288917449587991481685378403199138119816780090332 
10 10 4 8 0.081902518339839580630012960682506673038005828857 
10 10 8 4 0.081902518339839580630012960682506673038005828857 
10 10 8 8 0.326190443953393693909958983567776158452033996582 
11 11 0 0 0.415087895806507789497885596574633382260799407959 
11 11 0 1 -0.000576560959790799187896226385419140569865703583 
11 11 0 5 -0.000519022705077490376091020607418613508343696594 
11 11 0 12 0.000632603954854544961276807679695366459782235324 
11 11 0 13 -0.001095702190877084584996747906870950828306376934 
11 11 1 0 -0.000576560959790799187896226385419140569865703583 
11 11 1 1 0.341971470788392739592609359533526003360748291016 
11 11 1 5 0.067415909642003279955702055303845554590225219727 
11 11 1 12 0.012170868837305105075730082830887113232165575027 
11 11 1 13 -0.021080563198469199487350422828058071900159120560 
11 11 5 0 -0.000519022705077490376091020607418613508343696594 
[...]
3 9 10 2 0.029092850538958818507051518054140615276992321014 
3 9 10 6 0.018677048353918070111578941805419162847101688385 
3 9 2 10 0.029092850538958818507051518054140615276992321014 
3 9 6 10 0.018677048353918070111578941805419162847101688385 
3 9 3 9 0.041043453235180861471409485830008634366095066071 
3 9 7 9 0.025963730080225982943531448654539417475461959839 
3 9 4 0 0.003821448321991703124533845681298771523870527744 
3 9 4 1 0.040903969282974059207269590388023061677813529968 
3 9 4 5 -0.004976299506230905285442123187067409162409603596 
3 9 4 12 -0.020246606931982449872897689147066557779908180237 
3 9 4 13 0.023117549190847797024872534166206605732440948486 
3 9 8 0 0.008900578652944428695303891174717136891558766365 
3 9 8 1 0.024607522027907127726287228597357170656323432922 
3 9 8 5 0.031927143107457728321563195095222909003496170044 
3 9 8 12 -0.012886682722893751801285233682392572518438100815 
3 9 8 13 0.015033707490764113695602688380859035532921552658 
7 9 0 4 0.004156095707732829214187120214774040505290031433 
7 9 0 8 0.009962977127383951941874684621325286570936441422 
7 9 1 4 0.026085623968922302257089640420417708810418844223 
7 9 1 8 0.024790283592336426199409515902516432106494903564 
7 9 5 4 0.005921498021199190706087556179681996582075953484 
7 9 5 8 0.023087554967557672586098149736244522500783205032 
7 9 12 4 -0.012886682722893748331838281728778383694589138031 
7 9 12 8 -0.011688170119963614893010550588314799824729561806 
7 9 13 4 0.015033707490764110226155736427244846709072589874 
7 9 13 8 0.012639912501248313364543562897779338527470827103 
7 9 9 3 0.025963730080225969065743640840082662180066108704 
7 9 9 7 0.024046800492303902624380285146798996720463037491 
7 9 10 2 0.018677048353918073581025893759033351670950651169 
7 9 10 6 0.016442208498266823457623075910305487923324108124 
7 9 2 10 0.018677048353918073581025893759033351670950651169 
7 9 6 10 0.016442208498266823457623075910305487923324108124 
7 9 3 9 0.025963730080225969065743640840082662180066108704 
7 9 7 9 0.024046800492303902624380285146798996720463037491 
7 9 4 0 0.004156095707732829214187120214774040505290031433 
7 9 4 1 0.026085623968922302257089640420417708810418844223 
7 9 4 5 0.005921498021199190706087556179681996582075953484 
7 9 4 12 -0.012886682722893748331838281728778383694589138031 
7 9 4 13 0.015033707490764110226155736427244846709072589874 
7 9 8 0 0.009962977127383951941874684621325286570936441422 
7 9 8 1 0.024790283592336426199409515902516432106494903564 
7 9 8 5 0.023087554967557672586098149736244522500783205032 
7 9 8 12 -0.011688170119963614893010550588314799824729561806 
7 9 8 13 0.012639912501248313364543562897779338527470827103 
4 0 0 4 0.002767513888240834708104332051448182028252631426 
4 0 0 8 0.007459748017303990258453083583845000248402357101 
4 0 1 4 0.005319317809876318407791284670338427531532943249 
4 0 1 8 0.006233143347803581958699314924388090730644762516 
4 0 5 4 0.001848225295129756352158212351355359714943915606 
4 0 5 8 0.006018798046234485540906256062498869141563773155 
4 0 12 4 -0.002206314217396152313477308837263990426436066628 
4 0 12 8 -0.002399522975637395812154029073326455545611679554 
4 0 13 4 0.003821448321991701389810369704491677111946046352 
4 0 13 8 0.004156095707732826612101906249563398887403309345 
4 0 9 3 0.003821448321991702257172107692895224317908287048 
4 0 9 7 0.004156095707732828346825382226370493299327790737 
4 0 10 2 0.003821448321991702257172107692895224317908287048 
4 0 10 6 0.004156095707732828346825382226370493299327790737 
4 0 2 10 0.003821448321991702257172107692895224317908287048 
4 0 6 10 0.004156095707732828346825382226370493299327790737 
4 0 3 9 0.003821448321991702257172107692895224317908287048 
4 0 7 9 0.004156095707732828346825382226370493299327790737 
4 0 4 0 0.002767513888240834708104332051448182028252631426 
4 0 4 1 0.005319317809876318407791284670338427531532943249 
4 0 4 5 0.001848225295129756352158212351355359714943915606 
4 0 4 12 -0.002206314217396152313477308837263990426436066628 
4 0 4 13 0.003821448321991701389810369704491677111946046352 
4 0 8 0 0.007459748017303990258453083583845000248402357101 
4 0 8 1 0.006233143347803581958699314924388090730644762516 
4 0 8 5 0.006018798046234485540906256062498869141563773155 
4 0 8 12 -0.002399522975637395812154029073326455545611679554 
4 0 8 13 0.004156095707732826612101906249563398887403309345 
4 1 0 4 0.005319317809876318407791284670338427531532943249 
4 1 0 8 0.012469578388133464863507526843022787943482398987 
4 1 1 4 0.054006780065562545734003663255862193182110786438 
4 1 1 8 0.031796665697655761284590170134833897463977336884 
4 1 5 4 -0.008079613893323969731063982635532738640904426575 
4 1 5 8 0.044245567810416927545524856668635038658976554871 
4 1 12 4 -0.023615917676449254408721500908541202079504728317 
4 1 12 8 -0.015060542020436641641456532170195714570581912994 
4 1 13 4 0.040903969282974059207269590388023061677813529968 
4 1 13 8 0.026085623968922298787642688466803519986569881439 
4 1 9 3 0.040903969282974066146163494295251439325511455536 
4 1 9 7 0.026085623968922312665430496281260275281965732574 
4 1 10 2 0.040903969282974066146163494295251439325511455536 
4 1 10 6 0.026085623968922312665430496281260275281965732574 
4 1 2 10 0.040903969282974066146163494295251439325511455536 
4 1 6 10 0.026085623968922312665430496281260275281965732574 
4 1 3 9 0.040903969282974066146163494295251439325511455536 
4 1 7 9 0.026085623968922312665430496281260275281965732574 
4 1 4 0 0.005319317809876318407791284670338427531532943249 
4 1 4 1 0.054006780065562545734003663255862193182110786438 
4 1 4 5 -0.008079613893323969731063982635532738640904426575 
4 1 4 12 -0.023615917676449254408721500908541202079504728317 
4 1 4 13 0.040903969282974059207269590388023061677813529968 
4 1 8 0 0.012469578388133464863507526843022787943482398987 
4 1 8 1 0.031796665697655761284590170134833897463977336884 
4 1 8 5 0.044245567810416927545524856668635038658976554871 
4 1 8 12 -0.015060542020436641641456532170195714570581912994 
4 1 8 13 0.026085623968922298787642688466803519986569881439 
4 5 0 4 0.001848225295129757653200819333960680523887276649 
4 5 0 8 0.004573836841809276326786815047853451687842607498 
4 5 1 4 -0.008079613893323952383829222867461794521659612656 
4 5 1 8 0.012896148584394280869891424856632511364296078682 
4 5 5 4 0.020059833609773577989265902488114079460501670837 
4 5 5 8 -0.005056143194678331537206261714345600921660661697 
4 5 12 4 0.002873067859490609742001421267332261777482926846 
4 5 12 8 -0.003418778476545184311086167383564315969124436378 
4 5 13 4 -0.004976299506230893142377791349417748278938233852 
4 5 13 8 0.005921498021199212390131005889770676731131970882 
4 5 9 3 -0.004976299506230898346548219279839031514711678028 
4 5 9 7 0.005921498021199183767193652272453618934378027916 
4 5 10 2 -0.004976299506230898346548219279839031514711678028 
4 5 10 6 0.005921498021199183767193652272453618934378027916 
4 5 2 10 -0.004976299506230898346548219279839031514711678028 
4 5 6 10 0.005921498021199183767193652272453618934378027916 
4 5 3 9 -0.004976299506230898346548219279839031514711678028 
4 5 7 9 0.005921498021199183767193652272453618934378027916 
4 5 4 0 0.001848225295129757653200819333960680523887276649 
4 5 4 1 -0.008079613893323952383829222867461794521659612656 
4 5 4 5 0.020059833609773577989265902488114079460501670837 
4 5 4 12 0.002873067859490609742001421267332261777482926846 
4 5 4 13 -0.004976299506230893142377791349417748278938233852 
4 5 8 0 0.004573836841809276326786815047853451687842607498 
4 5 8 1 0.012896148584394280869891424856632511364296078682 
4 5 8 5 -0.005056143194678331537206261714345600921660661697 
4 5 8 12 -0.003418778476545184311086167383564315969124436378 
4 5 8 13 0.005921498021199212390131005889770676731131970882 
4 12 0 4 -0.002206314217396152747158177831465764029417186975 
4 12 0 8 -0.005138751481220900363400261312563088722527027130 
4 12 1 4 -0.023615917676449257878168452862155390903353691101 
4 12 1 8 -0.014207159466901819744322210681275464594364166260 
4 12 5 4 0.002873067859490608007277945290525167365558445454 
4 12 5 8 -0.018433144667546429856797018942415888886898756027 
4 12 12 4 0.017664685310467630185993215263806632719933986664 
4 12 12 8 0.011083470602177951380706844020096468739211559296 
4 12 13 4 -0.020246606931982453342344641100680746603757143021 
4 12 13 8 -0.012886682722893758740179137589620950166136026382 
4 12 9 3 -0.020246606931982449872897689147066557779908180237 
4 12 9 7 -0.012886682722893751801285233682392572518438100815 
4 12 10 2 -0.009897081406519354918049913294453290291130542755 
4 12 10 6 -0.006576231238619256388999723128563346108421683311 
4 12 2 10 -0.009897081406519354918049913294453290291130542755 
4 12 6 10 -0.006576231238619256388999723128563346108421683311 
4 12 3 9 -0.020246606931982449872897689147066557779908180237 
4 12 7 9 -0.012886682722893751801285233682392572518438100815 
4 12 4 0 -0.002206314217396152747158177831465764029417186975 
4 12 4 1 -0.023615917676449257878168452862155390903353691101 
4 12 4 5 0.002873067859490608007277945290525167365558445454 
4 12 4 12 0.017664685310467630185993215263806632719933986664 
4 12 4 13 -0.020246606931982453342344641100680746603757143021 
4 12 8 0 -0.005138751481220900363400261312563088722527027130 
4 12 8 1 -0.014207159466901819744322210681275464594364166260 
4 12 8 5 -0.018433144667546429856797018942415888886898756027 
4 12 8 12 0.011083470602177951380706844020096468739211559296 
4 12 8 13 -0.012886682722893758740179137589620950166136026382 
4 13 0 4 0.003821448321991702257172107692895224317908287048 
4 13 0 8 0.008900578652944426960580415197910042479634284973 
4 13 1 4 0.040903969282974059207269590388023061677813529968 
4 13 1 8 0.024607522027907127726287228597357170656323432922 
4 13 5 4 -0.004976299506230906152803861175470956368371844292 
4 13 5 8 0.031927143107457749138244906816908041946589946747 
4 13 12 4 -0.020246606931982449872897689147066557779908180237 
4 13 12 8 -0.012886682722893758740179137589620950166136026382 
4 13 13 4 0.041043453235180847593621678015551879070699214935 
4 13 13 8 0.025963730080225996821319256468996172770857810974 
4 13 9 3 0.023117549190847797024872534166206605732440948486 
4 13 9 7 0.015033707490764113695602688380859035532921552658 
4 13 10 2 0.029092850538958818507051518054140615276992321014 
4 13 10 6 0.018677048353918066642131989851804974023252725601 
4 13 2 10 0.029092850538958818507051518054140615276992321014 
4 13 6 10 0.018677048353918066642131989851804974023252725601 
4 13 3 9 0.023117549190847797024872534166206605732440948486 
4 13 7 9 0.015033707490764113695602688380859035532921552658 
4 13 4 0 0.003821448321991702257172107692895224317908287048 
4 13 4 1 0.040903969282974059207269590388023061677813529968 
4 13 4 5 -0.004976299506230906152803861175470956368371844292 
4 13 4 12 -0.020246606931982449872897689147066557779908180237 
4 13 4 13 0.041043453235180847593621678015551879070699214935 
4 13 8 0 0.008900578652944426960580415197910042479634284973 
4 13 8 1 0.024607522027907127726287228597357170656323432922 
4 13 8 5 0.031927143107457749138244906816908041946589946747 
4 13 8 12 -0.012886682722893758740179137589620950166136026382 
4 13 8 13 0.025963730080225996821319256468996172770857810974 
8 0 0 4 0.007459748017303990258453083583845000248402357101 
8 0 0 8 0.020298985463750609387068024602740479167550802231 
8 0 1 4 0.012469578388133464863507526843022787943482398987 
8 0 1 8 0.014996679074912694709653671054638834903016686440 
8 0 5 4 0.004573836841809278061510291024660546099767088890 
8 0 5 8 0.014439289057716426373234597235750698018819093704 
8 0 12 4 -0.005138751481220900363400261312563088722527027130 
8 0 12 8 -0.005752127526425202148907533938881897483952343464 
8 0 13 4 0.008900578652944426960580415197910042479634284973 
8 0 13 8 0.009962977127383939798810352783675625687465071678 
8 0 9 3 0.008900578652944428695303891174717136891558766365 
8 0 9 7 0.009962977127383955411321636574939475394785404205 
8 0 10 2 0.008900578652944428695303891174717136891558766365 
8 0 10 6 0.009962977127383955411321636574939475394785404205 
8 0 2 10 0.008900578652944428695303891174717136891558766365 
8 0 6 10 0.009962977127383955411321636574939475394785404205 
8 0 3 9 0.008900578652944428695303891174717136891558766365 
8 0 7 9 0.009962977127383955411321636574939475394785404205 
8 0 4 0 0.007459748017303990258453083583845000248402357101 
8 0 4 1 0.012469578388133464863507526843022787943482398987 
8 0 4 5 0.004573836841809278061510291024660546099767088890 
8 0 4 12 -0.005138751481220900363400261312563088722527027130 
8 0 4 13 0.008900578652944426960580415197910042479634284973 
8 0 8 0 0.020298985463750609387068024602740479167550802231 
8 0 8 1 0.014996679074912694709653671054638834903016686440 
8 0 8 5 0.014439289057716426373234597235750698018819093704 
8 0 8 12 -0.005752127526425202148907533938881897483952343464 
8 0 8 13 0.009962977127383939798810352783675625687465071678 
8 1 0 4 0.006233143347803581091337576935984543524682521820 
8 1 0 8 0.014996679074912696444377147031445929314941167831 
8 1 1 4 0.031796665697655782101271881856519030407071113586 
8 1 1 8 0.035976925513535096268213919756817631423473358154 
8 1 5 4 0.012896148584394272196274044972597039304673671722 
8 1 5 8 0.029608371647538669901855712396354647353291511536 
8 1 12 4 -0.014207159466901826683216114588503842242062091827 
8 1 12 8 -0.014312676905322592804670200905547972070053219795 
8 1 13 4 0.024607522027907127726287228597357170656323432922 
8 1 13 8 0.024790283592336415791068660041673865634948015213 
8 1 9 3 0.024607522027907134665181132504585548304021358490 
8 1 9 7 0.024790283592336422729962563948902243282645940781 
8 1 10 2 0.024607522027907134665181132504585548304021358490 
8 1 10 6 0.024790283592336422729962563948902243282645940781 
8 1 2 10 0.024607522027907134665181132504585548304021358490 
8 1 6 10 0.024790283592336422729962563948902243282645940781 
8 1 3 9 0.024607522027907134665181132504585548304021358490 
8 1 7 9 0.024790283592336422729962563948902243282645940781 
8 1 4 0 0.006233143347803581091337576935984543524682521820 
8 1 4 1 0.031796665697655782101271881856519030407071113586 
8 1 4 5 0.012896148584394272196274044972597039304673671722 
8 1 4 12 -0.014207159466901826683216114588503842242062091827 
8 1 4 13 0.024607522027907127726287228597357170656323432922 
8 1 8 0 0.014996679074912696444377147031445929314941167831 
8 1 8 1 0.035976925513535096268213919756817631423473358154 
8 1 8 5 0.029608371647538669901855712396354647353291511536 
8 1 8 12 -0.014312676905322592804670200905547972070053219795 
8 1 8 13 0.024790283592336415791068660041673865634948015213 
8 5 0 4 0.006018798046234487275629732039305963553488254547 
8 5 0 8 0.014439289057716424638511121258943603606894612312 
8 5 1 4 0.044245567810416941423312664483091793954372406006 
8 5 1 8 0.029608371647538662962961808489126269705593585968 
8 5 5 4 -0.005056143194678350619164497459223639452829957008 
8 5 5 8 0.042906528754188412444481315333177917636930942535 
8 5 12 4 -0.018433144667546419448456163081573322415351867676 
8 5 12 8 -0.013329606075449692420553660099358239676803350449 
8 5 13 4 0.031927143107457742199351002909679664298892021179 
8 5 13 8 0.023087554967557606666606062617574934847652912140 
8 5 9 3 0.031927143107457728321563195095222909003496170044 
8 5 9 7 0.023087554967557662177757293875401956029236316681 
8 5 10 2 0.031927143107457728321563195095222909003496170044 
8 5 10 6 0.023087554967557662177757293875401956029236316681 
8 5 2 10 0.031927143107457728321563195095222909003496170044 
8 5 6 10 0.023087554967557662177757293875401956029236316681 
8 5 3 9 0.031927143107457728321563195095222909003496170044 
8 5 7 9 0.023087554967557662177757293875401956029236316681 
8 5 4 0 0.006018798046234487275629732039305963553488254547 
8 5 4 1 0.044245567810416941423312664483091793954372406006 
8 5 4 5 -0.005056143194678350619164497459223639452829957008 
8 5 4 12 -0.018433144667546419448456163081573322415351867676 
8 5 4 13 0.031927143107457742199351002909679664298892021179 
8 5 8 0 0.014439289057716424638511121258943603606894612312 
8 5 8 1 0.029608371647538662962961808489126269705593585968 
8 5 8 5 0.042906528754188412444481315333177917636930942535 
8 5 8 12 -0.013329606075449692420553660099358239676803350449 
8 5 8 13 0.023087554967557606666606062617574934847652912140 
8 12 0 4 -0.002399522975637395812154029073326455545611679554 
8 12 0 8 -0.005752127526425203883631009915688991895876824856 
8 12 1 4 -0.015060542020436643376180008147002808982506394386 
8 12 1 8 -0.014312676905322599743564104812776349717751145363 
8 12 5 4 -0.003418778476545194719427023244406882440671324730 
8 12 5 8 -0.013329606075449690685830184122551145264878869057 
8 12 12 4 0.011083470602177947911259892066482279915362596512 
8 12 12 8 0.010550464162113639202122961080476670758798718452 
8 12 13 4 -0.012886682722893755270732185636006761342287063599 
8 12 13 8 -0.011688170119963569790200175191330345114693045616 
8 12 9 3 -0.012886682722893751801285233682392572518438100815 
8 12 9 7 -0.011688170119963613158287074611507705412805080414 
8 12 10 2 -0.006576231238619254654276247151756251696497201920 
8 12 10 6 -0.005102400267711728644448587743909229175187647343 
8 12 2 10 -0.006576231238619254654276247151756251696497201920 
8 12 6 10 -0.005102400267711728644448587743909229175187647343 
8 12 3 9 -0.012886682722893751801285233682392572518438100815 
8 12 7 9 -0.011688170119963613158287074611507705412805080414 
8 12 4 0 -0.002399522975637395812154029073326455545611679554 
8 12 4 1 -0.015060542020436643376180008147002808982506394386 
8 12 4 5 -0.003418778476545194719427023244406882440671324730 
8 12 4 12 0.011083470602177947911259892066482279915362596512 
8 12 4 13 -0.012886682722893755270732185636006761342287063599 
8 12 8 0 -0.005752127526425203883631009915688991895876824856 
8 12 8 1 -0.014312676905322599743564104812776349717751145363 
8 12 8 5 -0.013329606075449690685830184122551145264878869057 
8 12 8 12 0.010550464162113639202122961080476670758798718452 
8 12 8 13 -0.011688170119963569790200175191330345114693045616 
8 13 0 4 0.004156095707732826612101906249563398887403309345 
8 13 0 8 0.009962977127383939798810352783675625687465071678 
8 13 1 4 0.026085623968922298787642688466803519986569881439 
8 13 1 8 0.024790283592336419260515611995288054458796977997 
8 13 5 4 0.005921498021199226267918813704227432026527822018 
8 13 5 8 0.023087554967557630952734726292874256614595651627 
8 13 12 4 -0.012886682722893758740179137589620950166136026382 
8 13 12 8 -0.011688170119963568055476699214523250702768564224 
8 13 13 4 0.025963730080225976004637544747311039827764034271 
8 13 13 8 0.024046800492303874868804669517885486129671335220 
8 13 9 3 0.015033707490764110226155736427244846709072589874 
8 13 9 7 0.012639912501248313364543562897779338527470827103 
8 13 10 2 0.018677048353918066642131989851804974023252725601 
8 13 10 6 0.016442208498266844274304787631990620866417884827 
8 13 2 10 0.018677048353918066642131989851804974023252725601 
8 13 6 10 0.016442208498266844274304787631990620866417884827 
8 13 3 9 0.015033707490764110226155736427244846709072589874 
8 13 7 9 0.012639912501248313364543562897779338527470827103 
8 13 4 0 0.004156095707732826612101906249563398887403309345 
8 13 4 1 0.026085623968922298787642688466803519986569881439 
8 13 4 5 0.005921498021199226267918813704227432026527822018 
8 13 4 12 -0.012886682722893758740179137589620950166136026382 
8 13 4 13 0.025963730080225976004637544747311039827764034271 
8 13 8 0 0.009962977127383939798810352783675625687465071678 
8 13 8 1 0.024790283592336419260515611995288054458796977997 
8 13 8 5 0.023087554967557630952734726292874256614595651627 
8 13 8 12 -0.011688170119963568055476699214523250702768564224 
8 13 8 13 0.024046800492303874868804669517885486129671335220 
****  HF Energy = -14.572337630953366982566876686178147792816162109375 
****  Molecular Integrals For DOCI End Here 

*** PSI4 exiting successfully. Buy a developer a beer!
