    -----------------------------------------------------------------------
          PSI4: An Open-Source Ab Initio Electronic Structure Package
                              PSI 4.0.0-beta5 Driver

    J. M. Turney, A. C. Simmonett, R. M. Parrish, E. G. Hohenstein,
    F. A. Evangelista, J. T. Fermann, B. J. Mintz, L. A. Burns, J. J. Wilke,
    M. L. Abrams, N. J. Russ, M. L. Leininger, C. L. Janssen, E. T. Seidl,
    W. D. Allen, H. F. Schaefer, R. A. King, E. F. Valeev, C. D. Sherrill,
    and T. D. Crawford, WIREs Comput. Mol. Sci., (2011) (doi: 10.1002/wcms.93)

                         Additional Contributions by
    A. E. DePrince, M. Saitow, U. Bozkaya, A. Yu. Sokolov
    -----------------------------------------------------------------------

    Process ID:  30892
    PSI4DATADIR: /usr/local/psi4/share/psi

    Using LocalCommunicator (Number of processes = 1)

    Memory level set to 256.000 MB

  ==> Input File <==

--------------------------------------------------------------------------
#PYTHONPATH must include directory above plugin directory.
#Define either externally or here, then import plugin.

molecule   {
0 1
Be 0 0 0
H  0 0 -4.932232824696
H  0 0 4.932232824696
units au
symmetry c1
}
plugin_load("../sointegrals/sointegrals.so")
set basis sto-3g
set sointegrals print 1
set reference rhf
set savehdf5 true
scf()

plugin("sointegrals.so")

--------------------------------------------------------------------------
../sointegrals/sointegrals.so loaded.

*** tstart() called on moesasji
*** at Tue May  5 18:53:51 2015


         ---------------------------------------------------------
                                   SCF
            by Justin Turney, Rob Parrish, and Andy Simmonett
                              RHF Reference
                        1 Threads,    256 MiB Core
         ---------------------------------------------------------

  ==> Geometry <==

    Molecular point group: c1
    Full point group: D_inf_h

    Geometry (in Bohr), charge = 0, multiplicity = 1:

       Center              X                  Y                   Z       
    ------------   -----------------  -----------------  -----------------
          BE          0.000000000000     0.000000000000     0.000000000000
           H          0.000000000000     0.000000000000    -4.932232824696
           H          0.000000000000     0.000000000000     4.932232824696

  Running in c1 symmetry.

  Nuclear repulsion =    1.723357412780671

  Charge       = 0
  Multiplicity = 1
  Electrons    = 6
  Nalpha       = 3
  Nbeta        = 3

  ==> Algorithm <==

  SCF Algorithm Type is PK.
  DIIS enabled.
  MOM disabled.
  Fractional occupation disabled.
  Guess Type is CORE.
  Energy threshold   = 1.00e-06
  Density threshold  = 1.00e-06
  Integral threshold = 0.00e+00

  ==> Primary Basis <==

  Basis Set: sto-3g
    Number of shells: 5
    Number of basis function: 7
    Number of Cartesian functions: 7
    Spherical Harmonics?: true
    Max angular momentum: 1

  ==> Pre-Iterations <==

   -------------------------------------------------------
    Irrep   Nso     Nmo     Nalpha   Nbeta   Ndocc  Nsocc
   -------------------------------------------------------
     A          7       7       0       0       0       0
   -------------------------------------------------------
    Total       7       7       3       3       3       0
   -------------------------------------------------------

  Starting with a DF guess...

 OEINTS: Wrapper to libmints.
   by Justin Turney

   Calculation information:
      Number of atoms:                   3
      Number of AO shells:               5
      Number of SO shells:               5
      Number of primitives:             15
      Number of atomic orbitals:         7
      Number of basis functions:         7

      Number of irreps:                  1
      Number of functions per irrep: [   7 ]

      Overlap, kinetic, potential, dipole, and quadrupole integrals
        stored in file 35.

  ==> Integral Setup <==

!!!!!!!!!!!!!!!!!!!!!!!!!!!!!!!!!!!!!!!!!!!!!!!!!
sanity check failed! Gaussian94BasisSetParser::parser: Unable to find the basis set for BE in /usr/local/psi4/share/psi/basis/cc-pvdz-jkfit.gbs
file: /home/mario/Downloads/psi4.0b5/src/lib/libmints/basisset_parser.cc
line: 362
   Turning off DF and switching to PK method.
!!!!!!!!!!!!!!!!!!!!!!!!!!!!!!!!!!!!!!!!!!!!!!!!!
 MINTS: Wrapper to libmints.
   by Justin Turney

   Calculation information:
      Number of atoms:                   3
      Number of AO shells:               5
      Number of SO shells:               5
      Number of primitives:             15
      Number of atomic orbitals:         7
      Number of basis functions:         7

      Number of irreps:                  1
      Integral cutoff                 0.00e+00
      Number of functions per irrep: [   7 ]

      Overlap, kinetic, potential, dipole, and quadrupole integrals
        stored in file 35.

      Computing two-electron integrals...done
      Computed 167 non-zero two-electron integrals.
        Stored in file 33.

	Batch   1 pq = [       0,      28] index = [             0,406]
  ==> DiskJK: Disk-Based J/K Matrices <==

    J tasked:                  Yes
    K tasked:                  Yes
    wK tasked:                  No
    Memory (MB):               183
    Schwarz Cutoff:          1E-12

  Minimum eigenvalue in the overlap matrix is 7.0253347025E-01.
  Using Symmetric Orthogonalization.
  SCF Guess: Core (One-Electron) Hamiltonian.

  ==> Iterations <==

                        Total Energy        Delta E     RMS |[F,P]|

   @RHF iter   1:   -14.18937567222450   -1.41894e+01   3.25521e-02 
   @RHF iter   2:   -14.67619817595089   -4.86823e-01   4.80887e-02 DIIS
   @RHF iter   3:   -15.04021934352258   -3.64021e-01   3.09364e-02 DIIS
   @RHF iter   4:   -15.07714632441275   -3.69270e-02   2.40397e-02 DIIS
   @RHF iter   5:   -15.12308059612214   -4.59343e-02   6.83081e-03 DIIS
   @RHF iter   6:   -15.12523765681742   -2.15706e-03   4.44926e-03 DIIS
   @RHF iter   7:   -15.12570996503342   -4.72308e-04   3.72481e-03 DIIS
   @RHF iter   8:   -15.12613885593515   -4.28891e-04   2.91222e-03 DIIS
   @RHF iter   9:   -15.12658237333697   -4.43517e-04   1.69844e-03 DIIS
   @RHF iter  10:   -15.12678832304808   -2.05950e-04   5.26310e-04 DIIS
   @RHF iter  11:   -15.12680881646642   -2.04934e-05   1.30942e-04 DIIS
   @RHF iter  12:   -15.12681014788224   -1.33142e-06   1.65077e-05 DIIS
   @RHF iter  13:   -15.12681016931019   -2.14280e-08   7.27539e-08 DIIS

  ==> Post-Iterations <==

	Orbital Energies (a.u.)
	-----------------------

	Doubly Occupied:                                                      

	   1A     -4.559781     2A     -0.292454     3A     -0.209379  

	Virtual:                                                              

	   4A      0.074933     5A      0.198908     6A      0.198908  
	   7A      0.264714  

	Final Occupation by Irrep:
	          A 
	DOCC [     3 ]

  Energy converged.

  @RHF Final Energy:   -15.12681016931019

   => Energetics <=

    Nuclear Repulsion Energy =              1.7233574127806714
    One-Electron Energy =                 -23.5771071662095828
    Two-Electron Energy =                   6.7269395841187158
    DFT Exchange-Correlation Energy =       0.0000000000000000
    Empirical Dispersion Energy =           0.0000000000000000
    Total Energy =                        -15.1268101693101951



Properties will be evaluated at   0.000000,   0.000000,   0.000000 Bohr
  ==> Properties <==


Properties computed using the SCF density density matrix
  Nuclear Dipole Moment: (a.u.)
     X:     0.0000      Y:     0.0000      Z:     0.0000

  Electronic Dipole Moment: (a.u.)
     X:     0.0000      Y:     0.0000      Z:     0.0000

  Dipole Moment: (a.u.)
     X:     0.0000      Y:     0.0000      Z:     0.0000     Total:     0.0000

  Dipole Moment: (Debye)
     X:     0.0000      Y:     0.0000      Z:     0.0000     Total:     0.0000


  Saving occupied orbitals to File 180.

*** tstop() called on moesasji at Tue May  5 18:53:51 2015
Module time:
	user time   =       0.04 seconds =       0.00 minutes
	system time =       0.00 seconds =       0.00 minutes
	total time  =          0 seconds =       0.00 minutes
Total time:
	user time   =       0.04 seconds =       0.00 minutes
	system time =       0.00 seconds =       0.00 minutes
	total time  =          0 seconds =       0.00 minutes
Reading options from the SOINTEGRALS block
Calling plugin sointegrals.so.
    Molecular point group: c1
    Full point group: D_inf_h

    Geometry (in Bohr), charge = 0, multiplicity = 1:

       Center              X                  Y                   Z       
    ------------   -----------------  -----------------  -----------------
          BE          0.000000000000     0.000000000000     0.000000000000
           H          0.000000000000     0.000000000000    -4.932232824696
           H          0.000000000000     0.000000000000     4.932232824696

If anything went wrong: Is c1 equal to c1?
  ## Overlap (Symmetry 0) ##
  Irrep: 1 Size: 7 x 7

                 1            2            3            4            5

    1    1.0000000    0.2595173    0.0000000    0.0000000    0.0000000
    2    0.2595173    1.0000000    0.0000000    0.0000000    0.0000000
    3    0.0000000    0.0000000    1.0000000    0.0000000    0.0000000
    4    0.0000000    0.0000000    0.0000000    1.0000000    0.0000000
    5    0.0000000    0.0000000    0.0000000    0.0000000    1.0000000
    6    0.0032758    0.1056583   -0.1576393    0.0000000    0.0000000
    7    0.0032758    0.1056583    0.1576393    0.0000000    0.0000000

                 6            7

    1    0.0032758    0.0032758
    2    0.1056583    0.1056583
    3   -0.1576393    0.1576393
    4    0.0000000    0.0000000
    5    0.0000000    0.0000000
    6    1.0000000    0.0000543
    7    0.0000543    1.0000000



  ## Overlap (Symmetry 0) ##
  Irrep: 1 Size: 7 x 7

                 1            2            3            4            5

    1    1.0000000    0.2595173    0.0000000    0.0000000    0.0000000
    2    0.2595173    1.0000000    0.0000000    0.0000000    0.0000000
    3    0.0000000    0.0000000    1.0000000    0.0000000    0.0000000
    4    0.0000000    0.0000000    0.0000000    1.0000000    0.0000000
    5    0.0000000    0.0000000    0.0000000    0.0000000    1.0000000
    6    0.0032758    0.1056583   -0.1576393    0.0000000    0.0000000
    7    0.0032758    0.1056583    0.1576393    0.0000000    0.0000000

                 6            7

    1    0.0032758    0.0032758
    2    0.1056583    0.1056583
    3   -0.1576393    0.1576393
    4    0.0000000    0.0000000
    5    0.0000000    0.0000000
    6    1.0000000    0.0000543
    7    0.0000543    1.0000000



  ## Overlap (Symmetry 0) ##
  Irrep: 1 Size: 7 x 7

                 1            2            3            4            5

    1    1.0000000    0.2595173    0.0000000    0.0000000    0.0000000
    2    0.2595173    1.0000000    0.0000000    0.0000000    0.0000000
    3    0.0000000    0.0000000    1.0000000    0.0000000    0.0000000
    4    0.0000000    0.0000000    0.0000000    1.0000000    0.0000000
    5    0.0000000    0.0000000    0.0000000    0.0000000    1.0000000
    6    0.0032758    0.1056583   -0.1576393    0.0000000    0.0000000
    7    0.0032758    0.1056583    0.1576393    0.0000000    0.0000000

                 6            7

    1    0.0032758    0.0032758
    2    0.1056583    0.1056583
    3   -0.1576393    0.1576393
    4    0.0000000    0.0000000
    5    0.0000000    0.0000000
    6    1.0000000    0.0000543
    7    0.0000543    1.0000000



  ## Overlap (Symmetry 0) ##
  Irrep: 1 Size: 7 x 7

                 1            2            3            4            5

    1    1.0000000    0.2595173    0.0000000    0.0000000    0.0000000
    2    0.2595173    1.0000000    0.0000000    0.0000000    0.0000000
    3    0.0000000    0.0000000    1.0000000    0.0000000    0.0000000
    4    0.0000000    0.0000000    0.0000000    1.0000000    0.0000000
    5    0.0000000    0.0000000    0.0000000    0.0000000    1.0000000
    6    0.0032758    0.1056583   -0.1576393    0.0000000    0.0000000
    7    0.0032758    0.1056583    0.1576393    0.0000000    0.0000000

                 6            7

    1    0.0032758    0.0032758
    2    0.1056583    0.1056583
    3   -0.1576393    0.1576393
    4    0.0000000    0.0000000
    5    0.0000000    0.0000000
    6    1.0000000    0.0000543
    7    0.0000543    1.0000000



  ## Overlap (Symmetry 0) ##
  Irrep: 1 Size: 7 x 7

                 1            2            3            4            5

    1    1.0000000    0.2595173    0.0000000    0.0000000    0.0000000
    2    0.2595173    1.0000000    0.0000000    0.0000000    0.0000000
    3    0.0000000    0.0000000    1.0000000    0.0000000    0.0000000
    4    0.0000000    0.0000000    0.0000000    1.0000000    0.0000000
    5    0.0000000    0.0000000    0.0000000    0.0000000    1.0000000
    6    0.0032758    0.1056583   -0.1576393    0.0000000    0.0000000
    7    0.0032758    0.1056583    0.1576393    0.0000000    0.0000000

                 6            7

    1    0.0032758    0.0032758
    2    0.1056583    0.1056583
    3   -0.1576393    0.1576393
    4    0.0000000    0.0000000
    5    0.0000000    0.0000000
    6    1.0000000    0.0000543
    7    0.0000543    1.0000000



  ## Overlap (Symmetry 0) ##
  Irrep: 1 Size: 7 x 7

                 1            2            3            4            5

    1    1.0000000    0.2595173    0.0000000    0.0000000    0.0000000
    2    0.2595173    1.0000000    0.0000000    0.0000000    0.0000000
    3    0.0000000    0.0000000    1.0000000    0.0000000    0.0000000
    4    0.0000000    0.0000000    0.0000000    1.0000000    0.0000000
    5    0.0000000    0.0000000    0.0000000    0.0000000    1.0000000
    6    0.0032758    0.1056583   -0.1576393    0.0000000    0.0000000
    7    0.0032758    0.1056583    0.1576393    0.0000000    0.0000000

                 6            7

    1    0.0032758    0.0032758
    2    0.1056583    0.1056583
    3   -0.1576393    0.1576393
    4    0.0000000    0.0000000
    5    0.0000000    0.0000000
    6    1.0000000    0.0000543
    7    0.0000543    1.0000000



  ## Overlap (Symmetry 0) ##
  Irrep: 1 Size: 7 x 7

                 1            2            3            4            5

    1    1.0000000    0.2595173    0.0000000    0.0000000    0.0000000
    2    0.2595173    1.0000000    0.0000000    0.0000000    0.0000000
    3    0.0000000    0.0000000    1.0000000    0.0000000    0.0000000
    4    0.0000000    0.0000000    0.0000000    1.0000000    0.0000000
    5    0.0000000    0.0000000    0.0000000    0.0000000    1.0000000
    6    0.0032758    0.1056583   -0.1576393    0.0000000    0.0000000
    7    0.0032758    0.1056583    0.1576393    0.0000000    0.0000000

                 6            7

    1    0.0032758    0.0032758
    2    0.1056583    0.1056583
    3   -0.1576393    0.1576393
    4    0.0000000    0.0000000
    5    0.0000000    0.0000000
    6    1.0000000    0.0000543
    7    0.0000543    1.0000000



  ## Overlap (Symmetry 0) ##
  Irrep: 1 Size: 7 x 7

                 1            2            3            4            5

    1    1.0000000    0.2595173    0.0000000    0.0000000    0.0000000
    2    0.2595173    1.0000000    0.0000000    0.0000000    0.0000000
    3    0.0000000    0.0000000    1.0000000    0.0000000    0.0000000
    4    0.0000000    0.0000000    0.0000000    1.0000000    0.0000000
    5    0.0000000    0.0000000    0.0000000    0.0000000    1.0000000
    6    0.0032758    0.1056583   -0.1576393    0.0000000    0.0000000
    7    0.0032758    0.1056583    0.1576393    0.0000000    0.0000000

                 6            7

    1    0.0032758    0.0032758
    2    0.1056583    0.1056583
    3   -0.1576393    0.1576393
    4    0.0000000    0.0000000
    5    0.0000000    0.0000000
    6    1.0000000    0.0000543
    7    0.0000543    1.0000000



  ## Overlap (Symmetry 0) ##
  Irrep: 1 Size: 7 x 7

                 1            2            3            4            5

    1    1.0000000    0.2595173    0.0000000    0.0000000    0.0000000
    2    0.2595173    1.0000000    0.0000000    0.0000000    0.0000000
    3    0.0000000    0.0000000    1.0000000    0.0000000    0.0000000
    4    0.0000000    0.0000000    0.0000000    1.0000000    0.0000000
    5    0.0000000    0.0000000    0.0000000    0.0000000    1.0000000
    6    0.0032758    0.1056583   -0.1576393    0.0000000    0.0000000
    7    0.0032758    0.1056583    0.1576393    0.0000000    0.0000000

                 6            7

    1    0.0032758    0.0032758
    2    0.1056583    0.1056583
    3   -0.1576393    0.1576393
    4    0.0000000    0.0000000
    5    0.0000000    0.0000000
    6    1.0000000    0.0000543
    7    0.0000543    1.0000000



  ## Overlap (Symmetry 0) ##
  Irrep: 1 Size: 7 x 7

                 1            2            3            4            5

    1    1.0000000    0.2595173    0.0000000    0.0000000    0.0000000
    2    0.2595173    1.0000000    0.0000000    0.0000000    0.0000000
    3    0.0000000    0.0000000    1.0000000    0.0000000    0.0000000
    4    0.0000000    0.0000000    0.0000000    1.0000000    0.0000000
    5    0.0000000    0.0000000    0.0000000    0.0000000    1.0000000
    6    0.0032758    0.1056583   -0.1576393    0.0000000    0.0000000
    7    0.0032758    0.1056583    0.1576393    0.0000000    0.0000000

                 6            7

    1    0.0032758    0.0032758
    2    0.1056583    0.1056583
    3   -0.1576393    0.1576393
    4    0.0000000    0.0000000
    5    0.0000000    0.0000000
    6    1.0000000    0.0000543
    7    0.0000543    1.0000000



  ## Overlap (Symmetry 0) ##
  Irrep: 1 Size: 7 x 7

                 1            2            3            4            5

    1    1.0000000    0.2595173    0.0000000    0.0000000    0.0000000
    2    0.2595173    1.0000000    0.0000000    0.0000000    0.0000000
    3    0.0000000    0.0000000    1.0000000    0.0000000    0.0000000
    4    0.0000000    0.0000000    0.0000000    1.0000000    0.0000000
    5    0.0000000    0.0000000    0.0000000    0.0000000    1.0000000
    6    0.0032758    0.1056583   -0.1576393    0.0000000    0.0000000
    7    0.0032758    0.1056583    0.1576393    0.0000000    0.0000000

                 6            7

    1    0.0032758    0.0032758
    2    0.1056583    0.1056583
    3   -0.1576393    0.1576393
    4    0.0000000    0.0000000
    5    0.0000000    0.0000000
    6    1.0000000    0.0000543
    7    0.0000543    1.0000000



  ## Overlap (Symmetry 0) ##
  Irrep: 1 Size: 7 x 7

                 1            2            3            4            5

    1    1.0000000    0.2595173    0.0000000    0.0000000    0.0000000
    2    0.2595173    1.0000000    0.0000000    0.0000000    0.0000000
    3    0.0000000    0.0000000    1.0000000    0.0000000    0.0000000
    4    0.0000000    0.0000000    0.0000000    1.0000000    0.0000000
    5    0.0000000    0.0000000    0.0000000    0.0000000    1.0000000
    6    0.0032758    0.1056583   -0.1576393    0.0000000    0.0000000
    7    0.0032758    0.1056583    0.1576393    0.0000000    0.0000000

                 6            7

    1    0.0032758    0.0032758
    2    0.1056583    0.1056583
    3   -0.1576393    0.1576393
    4    0.0000000    0.0000000
    5    0.0000000    0.0000000
    6    1.0000000    0.0000543
    7    0.0000543    1.0000000



  ## Overlap (Symmetry 0) ##
  Irrep: 1 Size: 7 x 7

                 1            2            3            4            5

    1    1.0000000    0.2595173    0.0000000    0.0000000    0.0000000
    2    0.2595173    1.0000000    0.0000000    0.0000000    0.0000000
    3    0.0000000    0.0000000    1.0000000    0.0000000    0.0000000
    4    0.0000000    0.0000000    0.0000000    1.0000000    0.0000000
    5    0.0000000    0.0000000    0.0000000    0.0000000    1.0000000
    6    0.0032758    0.1056583   -0.1576393    0.0000000    0.0000000
    7    0.0032758    0.1056583    0.1576393    0.0000000    0.0000000

                 6            7

    1    0.0032758    0.0032758
    2    0.1056583    0.1056583
    3   -0.1576393    0.1576393
    4    0.0000000    0.0000000
    5    0.0000000    0.0000000
    6    1.0000000    0.0000543
    7    0.0000543    1.0000000



  ## Overlap (Symmetry 0) ##
  Irrep: 1 Size: 7 x 7

                 1            2            3            4            5

    1    1.0000000    0.2595173    0.0000000    0.0000000    0.0000000
    2    0.2595173    1.0000000    0.0000000    0.0000000    0.0000000
    3    0.0000000    0.0000000    1.0000000    0.0000000    0.0000000
    4    0.0000000    0.0000000    0.0000000    1.0000000    0.0000000
    5    0.0000000    0.0000000    0.0000000    0.0000000    1.0000000
    6    0.0032758    0.1056583   -0.1576393    0.0000000    0.0000000
    7    0.0032758    0.1056583    0.1576393    0.0000000    0.0000000

                 6            7

    1    0.0032758    0.0032758
    2    0.1056583    0.1056583
    3   -0.1576393    0.1576393
    4    0.0000000    0.0000000
    5    0.0000000    0.0000000
    6    1.0000000    0.0000543
    7    0.0000543    1.0000000



  ## Overlap (Symmetry 0) ##
  Irrep: 1 Size: 7 x 7

                 1            2            3            4            5

    1    1.0000000    0.2595173    0.0000000    0.0000000    0.0000000
    2    0.2595173    1.0000000    0.0000000    0.0000000    0.0000000
    3    0.0000000    0.0000000    1.0000000    0.0000000    0.0000000
    4    0.0000000    0.0000000    0.0000000    1.0000000    0.0000000
    5    0.0000000    0.0000000    0.0000000    0.0000000    1.0000000
    6    0.0032758    0.1056583   -0.1576393    0.0000000    0.0000000
    7    0.0032758    0.1056583    0.1576393    0.0000000    0.0000000

                 6            7

    1    0.0032758    0.0032758
    2    0.1056583    0.1056583
    3   -0.1576393    0.1576393
    4    0.0000000    0.0000000
    5    0.0000000    0.0000000
    6    1.0000000    0.0000543
    7    0.0000543    1.0000000



  ## Overlap (Symmetry 0) ##
  Irrep: 1 Size: 7 x 7

                 1            2            3            4            5

    1    1.0000000    0.2595173    0.0000000    0.0000000    0.0000000
    2    0.2595173    1.0000000    0.0000000    0.0000000    0.0000000
    3    0.0000000    0.0000000    1.0000000    0.0000000    0.0000000
    4    0.0000000    0.0000000    0.0000000    1.0000000    0.0000000
    5    0.0000000    0.0000000    0.0000000    0.0000000    1.0000000
    6    0.0032758    0.1056583   -0.1576393    0.0000000    0.0000000
    7    0.0032758    0.1056583    0.1576393    0.0000000    0.0000000

                 6            7

    1    0.0032758    0.0032758
    2    0.1056583    0.1056583
    3   -0.1576393    0.1576393
    4    0.0000000    0.0000000
    5    0.0000000    0.0000000
    6    1.0000000    0.0000543
    7    0.0000543    1.0000000



  ## Overlap (Symmetry 0) ##
  Irrep: 1 Size: 7 x 7

                 1            2            3            4            5

    1    1.0000000    0.2595173    0.0000000    0.0000000    0.0000000
    2    0.2595173    1.0000000    0.0000000    0.0000000    0.0000000
    3    0.0000000    0.0000000    1.0000000    0.0000000    0.0000000
    4    0.0000000    0.0000000    0.0000000    1.0000000    0.0000000
    5    0.0000000    0.0000000    0.0000000    0.0000000    1.0000000
    6    0.0032758    0.1056583   -0.1576393    0.0000000    0.0000000
    7    0.0032758    0.1056583    0.1576393    0.0000000    0.0000000

                 6            7

    1    0.0032758    0.0032758
    2    0.1056583    0.1056583
    3   -0.1576393    0.1576393
    4    0.0000000    0.0000000
    5    0.0000000    0.0000000
    6    1.0000000    0.0000543
    7    0.0000543    1.0000000



  ## Overlap (Symmetry 0) ##
  Irrep: 1 Size: 7 x 7

                 1            2            3            4            5

    1    1.0000000    0.2595173    0.0000000    0.0000000    0.0000000
    2    0.2595173    1.0000000    0.0000000    0.0000000    0.0000000
    3    0.0000000    0.0000000    1.0000000    0.0000000    0.0000000
    4    0.0000000    0.0000000    0.0000000    1.0000000    0.0000000
    5    0.0000000    0.0000000    0.0000000    0.0000000    1.0000000
    6    0.0032758    0.1056583   -0.1576393    0.0000000    0.0000000
    7    0.0032758    0.1056583    0.1576393    0.0000000    0.0000000

                 6            7

    1    0.0032758    0.0032758
    2    0.1056583    0.1056583
    3   -0.1576393    0.1576393
    4    0.0000000    0.0000000
    5    0.0000000    0.0000000
    6    1.0000000    0.0000543
    7    0.0000543    1.0000000



  ## Overlap (Symmetry 0) ##
  Irrep: 1 Size: 7 x 7

                 1            2            3            4            5

    1    1.0000000    0.2595173    0.0000000    0.0000000    0.0000000
    2    0.2595173    1.0000000    0.0000000    0.0000000    0.0000000
    3    0.0000000    0.0000000    1.0000000    0.0000000    0.0000000
    4    0.0000000    0.0000000    0.0000000    1.0000000    0.0000000
    5    0.0000000    0.0000000    0.0000000    0.0000000    1.0000000
    6    0.0032758    0.1056583   -0.1576393    0.0000000    0.0000000
    7    0.0032758    0.1056583    0.1576393    0.0000000    0.0000000

                 6            7

    1    0.0032758    0.0032758
    2    0.1056583    0.1056583
    3   -0.1576393    0.1576393
    4    0.0000000    0.0000000
    5    0.0000000    0.0000000
    6    1.0000000    0.0000543
    7    0.0000543    1.0000000



  ## Overlap (Symmetry 0) ##
  Irrep: 1 Size: 7 x 7

                 1            2            3            4            5

    1    1.0000000    0.2595173    0.0000000    0.0000000    0.0000000
    2    0.2595173    1.0000000    0.0000000    0.0000000    0.0000000
    3    0.0000000    0.0000000    1.0000000    0.0000000    0.0000000
    4    0.0000000    0.0000000    0.0000000    1.0000000    0.0000000
    5    0.0000000    0.0000000    0.0000000    0.0000000    1.0000000
    6    0.0032758    0.1056583   -0.1576393    0.0000000    0.0000000
    7    0.0032758    0.1056583    0.1576393    0.0000000    0.0000000

                 6            7

    1    0.0032758    0.0032758
    2    0.1056583    0.1056583
    3   -0.1576393    0.1576393
    4    0.0000000    0.0000000
    5    0.0000000    0.0000000
    6    1.0000000    0.0000543
    7    0.0000543    1.0000000



  ## Overlap (Symmetry 0) ##
  Irrep: 1 Size: 7 x 7

                 1            2            3            4            5

    1    1.0000000    0.2595173    0.0000000    0.0000000    0.0000000
    2    0.2595173    1.0000000    0.0000000    0.0000000    0.0000000
    3    0.0000000    0.0000000    1.0000000    0.0000000    0.0000000
    4    0.0000000    0.0000000    0.0000000    1.0000000    0.0000000
    5    0.0000000    0.0000000    0.0000000    0.0000000    1.0000000
    6    0.0032758    0.1056583   -0.1576393    0.0000000    0.0000000
    7    0.0032758    0.1056583    0.1576393    0.0000000    0.0000000

                 6            7

    1    0.0032758    0.0032758
    2    0.1056583    0.1056583
    3   -0.1576393    0.1576393
    4    0.0000000    0.0000000
    5    0.0000000    0.0000000
    6    1.0000000    0.0000543
    7    0.0000543    1.0000000



  ## Overlap (Symmetry 0) ##
  Irrep: 1 Size: 7 x 7

                 1            2            3            4            5

    1    1.0000000    0.2595173    0.0000000    0.0000000    0.0000000
    2    0.2595173    1.0000000    0.0000000    0.0000000    0.0000000
    3    0.0000000    0.0000000    1.0000000    0.0000000    0.0000000
    4    0.0000000    0.0000000    0.0000000    1.0000000    0.0000000
    5    0.0000000    0.0000000    0.0000000    0.0000000    1.0000000
    6    0.0032758    0.1056583   -0.1576393    0.0000000    0.0000000
    7    0.0032758    0.1056583    0.1576393    0.0000000    0.0000000

                 6            7

    1    0.0032758    0.0032758
    2    0.1056583    0.1056583
    3   -0.1576393    0.1576393
    4    0.0000000    0.0000000
    5    0.0000000    0.0000000
    6    1.0000000    0.0000543
    7    0.0000543    1.0000000



  ## Overlap (Symmetry 0) ##
  Irrep: 1 Size: 7 x 7

                 1            2            3            4            5

    1    1.0000000    0.2595173    0.0000000    0.0000000    0.0000000
    2    0.2595173    1.0000000    0.0000000    0.0000000    0.0000000
    3    0.0000000    0.0000000    1.0000000    0.0000000    0.0000000
    4    0.0000000    0.0000000    0.0000000    1.0000000    0.0000000
    5    0.0000000    0.0000000    0.0000000    0.0000000    1.0000000
    6    0.0032758    0.1056583   -0.1576393    0.0000000    0.0000000
    7    0.0032758    0.1056583    0.1576393    0.0000000    0.0000000

                 6            7

    1    0.0032758    0.0032758
    2    0.1056583    0.1056583
    3   -0.1576393    0.1576393
    4    0.0000000    0.0000000
    5    0.0000000    0.0000000
    6    1.0000000    0.0000543
    7    0.0000543    1.0000000



  ## Overlap (Symmetry 0) ##
  Irrep: 1 Size: 7 x 7

                 1            2            3            4            5

    1    1.0000000    0.2595173    0.0000000    0.0000000    0.0000000
    2    0.2595173    1.0000000    0.0000000    0.0000000    0.0000000
    3    0.0000000    0.0000000    1.0000000    0.0000000    0.0000000
    4    0.0000000    0.0000000    0.0000000    1.0000000    0.0000000
    5    0.0000000    0.0000000    0.0000000    0.0000000    1.0000000
    6    0.0032758    0.1056583   -0.1576393    0.0000000    0.0000000
    7    0.0032758    0.1056583    0.1576393    0.0000000    0.0000000

                 6            7

    1    0.0032758    0.0032758
    2    0.1056583    0.1056583
    3   -0.1576393    0.1576393
    4    0.0000000    0.0000000
    5    0.0000000    0.0000000
    6    1.0000000    0.0000543
    7    0.0000543    1.0000000



  ## Overlap (Symmetry 0) ##
  Irrep: 1 Size: 7 x 7

                 1            2            3            4            5

    1    1.0000000    0.2595173    0.0000000    0.0000000    0.0000000
    2    0.2595173    1.0000000    0.0000000    0.0000000    0.0000000
    3    0.0000000    0.0000000    1.0000000    0.0000000    0.0000000
    4    0.0000000    0.0000000    0.0000000    1.0000000    0.0000000
    5    0.0000000    0.0000000    0.0000000    0.0000000    1.0000000
    6    0.0032758    0.1056583   -0.1576393    0.0000000    0.0000000
    7    0.0032758    0.1056583    0.1576393    0.0000000    0.0000000

                 6            7

    1    0.0032758    0.0032758
    2    0.1056583    0.1056583
    3   -0.1576393    0.1576393
    4    0.0000000    0.0000000
    5    0.0000000    0.0000000
    6    1.0000000    0.0000543
    7    0.0000543    1.0000000



  ## Overlap (Symmetry 0) ##
  Irrep: 1 Size: 7 x 7

                 1            2            3            4            5

    1    1.0000000    0.2595173    0.0000000    0.0000000    0.0000000
    2    0.2595173    1.0000000    0.0000000    0.0000000    0.0000000
    3    0.0000000    0.0000000    1.0000000    0.0000000    0.0000000
    4    0.0000000    0.0000000    0.0000000    1.0000000    0.0000000
    5    0.0000000    0.0000000    0.0000000    0.0000000    1.0000000
    6    0.0032758    0.1056583   -0.1576393    0.0000000    0.0000000
    7    0.0032758    0.1056583    0.1576393    0.0000000    0.0000000

                 6            7

    1    0.0032758    0.0032758
    2    0.1056583    0.1056583
    3   -0.1576393    0.1576393
    4    0.0000000    0.0000000
    5    0.0000000    0.0000000
    6    1.0000000    0.0000543
    7    0.0000543    1.0000000



  ## Overlap (Symmetry 0) ##
  Irrep: 1 Size: 7 x 7

                 1            2            3            4            5

    1    1.0000000    0.2595173    0.0000000    0.0000000    0.0000000
    2    0.2595173    1.0000000    0.0000000    0.0000000    0.0000000
    3    0.0000000    0.0000000    1.0000000    0.0000000    0.0000000
    4    0.0000000    0.0000000    0.0000000    1.0000000    0.0000000
    5    0.0000000    0.0000000    0.0000000    0.0000000    1.0000000
    6    0.0032758    0.1056583   -0.1576393    0.0000000    0.0000000
    7    0.0032758    0.1056583    0.1576393    0.0000000    0.0000000

                 6            7

    1    0.0032758    0.0032758
    2    0.1056583    0.1056583
    3   -0.1576393    0.1576393
    4    0.0000000    0.0000000
    5    0.0000000    0.0000000
    6    1.0000000    0.0000543
    7    0.0000543    1.0000000



  ## Overlap (Symmetry 0) ##
  Irrep: 1 Size: 7 x 7

                 1            2            3            4            5

    1    1.0000000    0.2595173    0.0000000    0.0000000    0.0000000
    2    0.2595173    1.0000000    0.0000000    0.0000000    0.0000000
    3    0.0000000    0.0000000    1.0000000    0.0000000    0.0000000
    4    0.0000000    0.0000000    0.0000000    1.0000000    0.0000000
    5    0.0000000    0.0000000    0.0000000    0.0000000    1.0000000
    6    0.0032758    0.1056583   -0.1576393    0.0000000    0.0000000
    7    0.0032758    0.1056583    0.1576393    0.0000000    0.0000000

                 6            7

    1    0.0032758    0.0032758
    2    0.1056583    0.1056583
    3   -0.1576393    0.1576393
    4    0.0000000    0.0000000
    5    0.0000000    0.0000000
    6    1.0000000    0.0000543
    7    0.0000543    1.0000000



  ## Overlap (Symmetry 0) ##
  Irrep: 1 Size: 7 x 7

                 1            2            3            4            5

    1    1.0000000    0.2595173    0.0000000    0.0000000    0.0000000
    2    0.2595173    1.0000000    0.0000000    0.0000000    0.0000000
    3    0.0000000    0.0000000    1.0000000    0.0000000    0.0000000
    4    0.0000000    0.0000000    0.0000000    1.0000000    0.0000000
    5    0.0000000    0.0000000    0.0000000    0.0000000    1.0000000
    6    0.0032758    0.1056583   -0.1576393    0.0000000    0.0000000
    7    0.0032758    0.1056583    0.1576393    0.0000000    0.0000000

                 6            7

    1    0.0032758    0.0032758
    2    0.1056583    0.1056583
    3   -0.1576393    0.1576393
    4    0.0000000    0.0000000
    5    0.0000000    0.0000000
    6    1.0000000    0.0000543
    7    0.0000543    1.0000000



  ## Overlap (Symmetry 0) ##
  Irrep: 1 Size: 7 x 7

                 1            2            3            4            5

    1    1.0000000    0.2595173    0.0000000    0.0000000    0.0000000
    2    0.2595173    1.0000000    0.0000000    0.0000000    0.0000000
    3    0.0000000    0.0000000    1.0000000    0.0000000    0.0000000
    4    0.0000000    0.0000000    0.0000000    1.0000000    0.0000000
    5    0.0000000    0.0000000    0.0000000    0.0000000    1.0000000
    6    0.0032758    0.1056583   -0.1576393    0.0000000    0.0000000
    7    0.0032758    0.1056583    0.1576393    0.0000000    0.0000000

                 6            7

    1    0.0032758    0.0032758
    2    0.1056583    0.1056583
    3   -0.1576393    0.1576393
    4    0.0000000    0.0000000
    5    0.0000000    0.0000000
    6    1.0000000    0.0000543
    7    0.0000543    1.0000000



  ## Overlap (Symmetry 0) ##
  Irrep: 1 Size: 7 x 7

                 1            2            3            4            5

    1    1.0000000    0.2595173    0.0000000    0.0000000    0.0000000
    2    0.2595173    1.0000000    0.0000000    0.0000000    0.0000000
    3    0.0000000    0.0000000    1.0000000    0.0000000    0.0000000
    4    0.0000000    0.0000000    0.0000000    1.0000000    0.0000000
    5    0.0000000    0.0000000    0.0000000    0.0000000    1.0000000
    6    0.0032758    0.1056583   -0.1576393    0.0000000    0.0000000
    7    0.0032758    0.1056583    0.1576393    0.0000000    0.0000000

                 6            7

    1    0.0032758    0.0032758
    2    0.1056583    0.1056583
    3   -0.1576393    0.1576393
    4    0.0000000    0.0000000
    5    0.0000000    0.0000000
    6    1.0000000    0.0000543
    7    0.0000543    1.0000000



  ## Overlap (Symmetry 0) ##
  Irrep: 1 Size: 7 x 7

                 1            2            3            4            5

    1    1.0000000    0.2595173    0.0000000    0.0000000    0.0000000
    2    0.2595173    1.0000000    0.0000000    0.0000000    0.0000000
    3    0.0000000    0.0000000    1.0000000    0.0000000    0.0000000
    4    0.0000000    0.0000000    0.0000000    1.0000000    0.0000000
    5    0.0000000    0.0000000    0.0000000    0.0000000    1.0000000
    6    0.0032758    0.1056583   -0.1576393    0.0000000    0.0000000
    7    0.0032758    0.1056583    0.1576393    0.0000000    0.0000000

                 6            7

    1    0.0032758    0.0032758
    2    0.1056583    0.1056583
    3   -0.1576393    0.1576393
    4    0.0000000    0.0000000
    5    0.0000000    0.0000000
    6    1.0000000    0.0000543
    7    0.0000543    1.0000000



  ## Overlap (Symmetry 0) ##
  Irrep: 1 Size: 7 x 7

                 1            2            3            4            5

    1    1.0000000    0.2595173    0.0000000    0.0000000    0.0000000
    2    0.2595173    1.0000000    0.0000000    0.0000000    0.0000000
    3    0.0000000    0.0000000    1.0000000    0.0000000    0.0000000
    4    0.0000000    0.0000000    0.0000000    1.0000000    0.0000000
    5    0.0000000    0.0000000    0.0000000    0.0000000    1.0000000
    6    0.0032758    0.1056583   -0.1576393    0.0000000    0.0000000
    7    0.0032758    0.1056583    0.1576393    0.0000000    0.0000000

                 6            7

    1    0.0032758    0.0032758
    2    0.1056583    0.1056583
    3   -0.1576393    0.1576393
    4    0.0000000    0.0000000
    5    0.0000000    0.0000000
    6    1.0000000    0.0000543
    7    0.0000543    1.0000000



  ## Overlap (Symmetry 0) ##
  Irrep: 1 Size: 7 x 7

                 1            2            3            4            5

    1    1.0000000    0.2595173    0.0000000    0.0000000    0.0000000
    2    0.2595173    1.0000000    0.0000000    0.0000000    0.0000000
    3    0.0000000    0.0000000    1.0000000    0.0000000    0.0000000
    4    0.0000000    0.0000000    0.0000000    1.0000000    0.0000000
    5    0.0000000    0.0000000    0.0000000    0.0000000    1.0000000
    6    0.0032758    0.1056583   -0.1576393    0.0000000    0.0000000
    7    0.0032758    0.1056583    0.1576393    0.0000000    0.0000000

                 6            7

    1    0.0032758    0.0032758
    2    0.1056583    0.1056583
    3   -0.1576393    0.1576393
    4    0.0000000    0.0000000
    5    0.0000000    0.0000000
    6    1.0000000    0.0000543
    7    0.0000543    1.0000000



  ## Overlap (Symmetry 0) ##
  Irrep: 1 Size: 7 x 7

                 1            2            3            4            5

    1    1.0000000    0.2595173    0.0000000    0.0000000    0.0000000
    2    0.2595173    1.0000000    0.0000000    0.0000000    0.0000000
    3    0.0000000    0.0000000    1.0000000    0.0000000    0.0000000
    4    0.0000000    0.0000000    0.0000000    1.0000000    0.0000000
    5    0.0000000    0.0000000    0.0000000    0.0000000    1.0000000
    6    0.0032758    0.1056583   -0.1576393    0.0000000    0.0000000
    7    0.0032758    0.1056583    0.1576393    0.0000000    0.0000000

                 6            7

    1    0.0032758    0.0032758
    2    0.1056583    0.1056583
    3   -0.1576393    0.1576393
    4    0.0000000    0.0000000
    5    0.0000000    0.0000000
    6    1.0000000    0.0000543
    7    0.0000543    1.0000000



  ## Overlap (Symmetry 0) ##
  Irrep: 1 Size: 7 x 7

                 1            2            3            4            5

    1    1.0000000    0.2595173    0.0000000    0.0000000    0.0000000
    2    0.2595173    1.0000000    0.0000000    0.0000000    0.0000000
    3    0.0000000    0.0000000    1.0000000    0.0000000    0.0000000
    4    0.0000000    0.0000000    0.0000000    1.0000000    0.0000000
    5    0.0000000    0.0000000    0.0000000    0.0000000    1.0000000
    6    0.0032758    0.1056583   -0.1576393    0.0000000    0.0000000
    7    0.0032758    0.1056583    0.1576393    0.0000000    0.0000000

                 6            7

    1    0.0032758    0.0032758
    2    0.1056583    0.1056583
    3   -0.1576393    0.1576393
    4    0.0000000    0.0000000
    5    0.0000000    0.0000000
    6    1.0000000    0.0000543
    7    0.0000543    1.0000000



  ## Overlap (Symmetry 0) ##
  Irrep: 1 Size: 7 x 7

                 1            2            3            4            5

    1    1.0000000    0.2595173    0.0000000    0.0000000    0.0000000
    2    0.2595173    1.0000000    0.0000000    0.0000000    0.0000000
    3    0.0000000    0.0000000    1.0000000    0.0000000    0.0000000
    4    0.0000000    0.0000000    0.0000000    1.0000000    0.0000000
    5    0.0000000    0.0000000    0.0000000    0.0000000    1.0000000
    6    0.0032758    0.1056583   -0.1576393    0.0000000    0.0000000
    7    0.0032758    0.1056583    0.1576393    0.0000000    0.0000000

                 6            7

    1    0.0032758    0.0032758
    2    0.1056583    0.1056583
    3   -0.1576393    0.1576393
    4    0.0000000    0.0000000
    5    0.0000000    0.0000000
    6    1.0000000    0.0000543
    7    0.0000543    1.0000000



  ## Overlap (Symmetry 0) ##
  Irrep: 1 Size: 7 x 7

                 1            2            3            4            5

    1    1.0000000    0.2595173    0.0000000    0.0000000    0.0000000
    2    0.2595173    1.0000000    0.0000000    0.0000000    0.0000000
    3    0.0000000    0.0000000    1.0000000    0.0000000    0.0000000
    4    0.0000000    0.0000000    0.0000000    1.0000000    0.0000000
    5    0.0000000    0.0000000    0.0000000    0.0000000    1.0000000
    6    0.0032758    0.1056583   -0.1576393    0.0000000    0.0000000
    7    0.0032758    0.1056583    0.1576393    0.0000000    0.0000000

                 6            7

    1    0.0032758    0.0032758
    2    0.1056583    0.1056583
    3   -0.1576393    0.1576393
    4    0.0000000    0.0000000
    5    0.0000000    0.0000000
    6    1.0000000    0.0000543
    7    0.0000543    1.0000000



  ## Overlap (Symmetry 0) ##
  Irrep: 1 Size: 7 x 7

                 1            2            3            4            5

    1    1.0000000    0.2595173    0.0000000    0.0000000    0.0000000
    2    0.2595173    1.0000000    0.0000000    0.0000000    0.0000000
    3    0.0000000    0.0000000    1.0000000    0.0000000    0.0000000
    4    0.0000000    0.0000000    0.0000000    1.0000000    0.0000000
    5    0.0000000    0.0000000    0.0000000    0.0000000    1.0000000
    6    0.0032758    0.1056583   -0.1576393    0.0000000    0.0000000
    7    0.0032758    0.1056583    0.1576393    0.0000000    0.0000000

                 6            7

    1    0.0032758    0.0032758
    2    0.1056583    0.1056583
    3   -0.1576393    0.1576393
    4    0.0000000    0.0000000
    5    0.0000000    0.0000000
    6    1.0000000    0.0000543
    7    0.0000543    1.0000000



  ## Overlap (Symmetry 0) ##
  Irrep: 1 Size: 7 x 7

                 1            2            3            4            5

    1    1.0000000    0.2595173    0.0000000    0.0000000    0.0000000
    2    0.2595173    1.0000000    0.0000000    0.0000000    0.0000000
    3    0.0000000    0.0000000    1.0000000    0.0000000    0.0000000
    4    0.0000000    0.0000000    0.0000000    1.0000000    0.0000000
    5    0.0000000    0.0000000    0.0000000    0.0000000    1.0000000
    6    0.0032758    0.1056583   -0.1576393    0.0000000    0.0000000
    7    0.0032758    0.1056583    0.1576393    0.0000000    0.0000000

                 6            7

    1    0.0032758    0.0032758
    2    0.1056583    0.1056583
    3   -0.1576393    0.1576393
    4    0.0000000    0.0000000
    5    0.0000000    0.0000000
    6    1.0000000    0.0000543
    7    0.0000543    1.0000000



  ## Overlap (Symmetry 0) ##
  Irrep: 1 Size: 7 x 7

                 1            2            3            4            5

    1    1.0000000    0.2595173    0.0000000    0.0000000    0.0000000
    2    0.2595173    1.0000000    0.0000000    0.0000000    0.0000000
    3    0.0000000    0.0000000    1.0000000    0.0000000    0.0000000
    4    0.0000000    0.0000000    0.0000000    1.0000000    0.0000000
    5    0.0000000    0.0000000    0.0000000    0.0000000    1.0000000
    6    0.0032758    0.1056583   -0.1576393    0.0000000    0.0000000
    7    0.0032758    0.1056583    0.1576393    0.0000000    0.0000000

                 6            7

    1    0.0032758    0.0032758
    2    0.1056583    0.1056583
    3   -0.1576393    0.1576393
    4    0.0000000    0.0000000
    5    0.0000000    0.0000000
    6    1.0000000    0.0000543
    7    0.0000543    1.0000000



  ## Overlap (Symmetry 0) ##
  Irrep: 1 Size: 7 x 7

                 1            2            3            4            5

    1    1.0000000    0.2595173    0.0000000    0.0000000    0.0000000
    2    0.2595173    1.0000000    0.0000000    0.0000000    0.0000000
    3    0.0000000    0.0000000    1.0000000    0.0000000    0.0000000
    4    0.0000000    0.0000000    0.0000000    1.0000000    0.0000000
    5    0.0000000    0.0000000    0.0000000    0.0000000    1.0000000
    6    0.0032758    0.1056583   -0.1576393    0.0000000    0.0000000
    7    0.0032758    0.1056583    0.1576393    0.0000000    0.0000000

                 6            7

    1    0.0032758    0.0032758
    2    0.1056583    0.1056583
    3   -0.1576393    0.1576393
    4    0.0000000    0.0000000
    5    0.0000000    0.0000000
    6    1.0000000    0.0000543
    7    0.0000543    1.0000000



  ## Overlap (Symmetry 0) ##
  Irrep: 1 Size: 7 x 7

                 1            2            3            4            5

    1    1.0000000    0.2595173    0.0000000    0.0000000    0.0000000
    2    0.2595173    1.0000000    0.0000000    0.0000000    0.0000000
    3    0.0000000    0.0000000    1.0000000    0.0000000    0.0000000
    4    0.0000000    0.0000000    0.0000000    1.0000000    0.0000000
    5    0.0000000    0.0000000    0.0000000    0.0000000    1.0000000
    6    0.0032758    0.1056583   -0.1576393    0.0000000    0.0000000
    7    0.0032758    0.1056583    0.1576393    0.0000000    0.0000000

                 6            7

    1    0.0032758    0.0032758
    2    0.1056583    0.1056583
    3   -0.1576393    0.1576393
    4    0.0000000    0.0000000
    5    0.0000000    0.0000000
    6    1.0000000    0.0000543
    7    0.0000543    1.0000000



  ## Overlap (Symmetry 0) ##
  Irrep: 1 Size: 7 x 7

                 1            2            3            4            5

    1    1.0000000    0.2595173    0.0000000    0.0000000    0.0000000
    2    0.2595173    1.0000000    0.0000000    0.0000000    0.0000000
    3    0.0000000    0.0000000    1.0000000    0.0000000    0.0000000
    4    0.0000000    0.0000000    0.0000000    1.0000000    0.0000000
    5    0.0000000    0.0000000    0.0000000    0.0000000    1.0000000
    6    0.0032758    0.1056583   -0.1576393    0.0000000    0.0000000
    7    0.0032758    0.1056583    0.1576393    0.0000000    0.0000000

                 6            7

    1    0.0032758    0.0032758
    2    0.1056583    0.1056583
    3   -0.1576393    0.1576393
    4    0.0000000    0.0000000
    5    0.0000000    0.0000000
    6    1.0000000    0.0000543
    7    0.0000543    1.0000000



  ## Overlap (Symmetry 0) ##
  Irrep: 1 Size: 7 x 7

                 1            2            3            4            5

    1    1.0000000    0.2595173    0.0000000    0.0000000    0.0000000
    2    0.2595173    1.0000000    0.0000000    0.0000000    0.0000000
    3    0.0000000    0.0000000    1.0000000    0.0000000    0.0000000
    4    0.0000000    0.0000000    0.0000000    1.0000000    0.0000000
    5    0.0000000    0.0000000    0.0000000    0.0000000    1.0000000
    6    0.0032758    0.1056583   -0.1576393    0.0000000    0.0000000
    7    0.0032758    0.1056583    0.1576393    0.0000000    0.0000000

                 6            7

    1    0.0032758    0.0032758
    2    0.1056583    0.1056583
    3   -0.1576393    0.1576393
    4    0.0000000    0.0000000
    5    0.0000000    0.0000000
    6    1.0000000    0.0000543
    7    0.0000543    1.0000000



  ## Overlap (Symmetry 0) ##
  Irrep: 1 Size: 7 x 7

                 1            2            3            4            5

    1    1.0000000    0.2595173    0.0000000    0.0000000    0.0000000
    2    0.2595173    1.0000000    0.0000000    0.0000000    0.0000000
    3    0.0000000    0.0000000    1.0000000    0.0000000    0.0000000
    4    0.0000000    0.0000000    0.0000000    1.0000000    0.0000000
    5    0.0000000    0.0000000    0.0000000    0.0000000    1.0000000
    6    0.0032758    0.1056583   -0.1576393    0.0000000    0.0000000
    7    0.0032758    0.1056583    0.1576393    0.0000000    0.0000000

                 6            7

    1    0.0032758    0.0032758
    2    0.1056583    0.1056583
    3   -0.1576393    0.1576393
    4    0.0000000    0.0000000
    5    0.0000000    0.0000000
    6    1.0000000    0.0000543
    7    0.0000543    1.0000000



  ## Overlap (Symmetry 0) ##
  Irrep: 1 Size: 7 x 7

                 1            2            3            4            5

    1    1.0000000    0.2595173    0.0000000    0.0000000    0.0000000
    2    0.2595173    1.0000000    0.0000000    0.0000000    0.0000000
    3    0.0000000    0.0000000    1.0000000    0.0000000    0.0000000
    4    0.0000000    0.0000000    0.0000000    1.0000000    0.0000000
    5    0.0000000    0.0000000    0.0000000    0.0000000    1.0000000
    6    0.0032758    0.1056583   -0.1576393    0.0000000    0.0000000
    7    0.0032758    0.1056583    0.1576393    0.0000000    0.0000000

                 6            7

    1    0.0032758    0.0032758
    2    0.1056583    0.1056583
    3   -0.1576393    0.1576393
    4    0.0000000    0.0000000
    5    0.0000000    0.0000000
    6    1.0000000    0.0000543
    7    0.0000543    1.0000000



  ## Overlap (Symmetry 0) ##
  Irrep: 1 Size: 7 x 7

                 1            2            3            4            5

    1    1.0000000    0.2595173    0.0000000    0.0000000    0.0000000
    2    0.2595173    1.0000000    0.0000000    0.0000000    0.0000000
    3    0.0000000    0.0000000    1.0000000    0.0000000    0.0000000
    4    0.0000000    0.0000000    0.0000000    1.0000000    0.0000000
    5    0.0000000    0.0000000    0.0000000    0.0000000    1.0000000
    6    0.0032758    0.1056583   -0.1576393    0.0000000    0.0000000
    7    0.0032758    0.1056583    0.1576393    0.0000000    0.0000000

                 6            7

    1    0.0032758    0.0032758
    2    0.1056583    0.1056583
    3   -0.1576393    0.1576393
    4    0.0000000    0.0000000
    5    0.0000000    0.0000000
    6    1.0000000    0.0000543
    7    0.0000543    1.0000000



  ## Overlap (Symmetry 0) ##
  Irrep: 1 Size: 7 x 7

                 1            2            3            4            5

    1    1.0000000    0.2595173    0.0000000    0.0000000    0.0000000
    2    0.2595173    1.0000000    0.0000000    0.0000000    0.0000000
    3    0.0000000    0.0000000    1.0000000    0.0000000    0.0000000
    4    0.0000000    0.0000000    0.0000000    1.0000000    0.0000000
    5    0.0000000    0.0000000    0.0000000    0.0000000    1.0000000
    6    0.0032758    0.1056583   -0.1576393    0.0000000    0.0000000
    7    0.0032758    0.1056583    0.1576393    0.0000000    0.0000000

                 6            7

    1    0.0032758    0.0032758
    2    0.1056583    0.1056583
    3   -0.1576393    0.1576393
    4    0.0000000    0.0000000
    5    0.0000000    0.0000000
    6    1.0000000    0.0000543
    7    0.0000543    1.0000000



****  Molecular Integrals For DOCI Start Here 
Nalpha = 3 
Nbeta = 3 
Symmetry Label = c1 
Nirreps = 1 
Nuclear Repulsion Energy = 1.723357412780671449326064248452894389629364013672 
Number Of SO Orbitals =  7 
Irreps Of SO Orbitals = 
 0  0  0  0  0  0  0 


  ## Overlap (Symmetry 0) ##
  Irrep: 1 Size: 7 x 7

                 1            2            3            4            5

    1    1.0000000    0.2595173    0.0000000    0.0000000    0.0000000
    2    0.2595173    1.0000000    0.0000000    0.0000000    0.0000000
    3    0.0000000    0.0000000    1.0000000    0.0000000    0.0000000
    4    0.0000000    0.0000000    0.0000000    1.0000000    0.0000000
    5    0.0000000    0.0000000    0.0000000    0.0000000    1.0000000
    6    0.0032758    0.1056583   -0.1576393    0.0000000    0.0000000
    7    0.0032758    0.1056583    0.1576393    0.0000000    0.0000000

                 6            7

    1    0.0032758    0.0032758
    2    0.1056583    0.1056583
    3   -0.1576393    0.1576393
    4    0.0000000    0.0000000
    5    0.0000000    0.0000000
    6    1.0000000    0.0000543
    7    0.0000543    1.0000000



*** OEI SO
0 0 -8.272613042674805683418526314198970794677734375000 
0 1 -2.037491081963292760548256410402245819568634033203 
0 2 0.000000000000000000000000000000000000000000000000 
0 3 0.000000000000000000000000000000000000000000000000 
0 4 0.000000000000000000000000000000000000000000000000 
0 5 -0.026245582932020783406557029593386687338352203369 
0 6 -0.026245582932020783406557029593386687338352203369 
1 1 -2.507278660252717283896117805852554738521575927734 
1 2 0.000000000000000000000000000000000000000000000000 
1 3 0.000000000000000000000000000000000000000000000000 
1 4 0.000000000000000000000000000000000000000000000000 
1 5 -0.212266597259524014695841742650372907519340515137 
1 6 -0.212266597259524014695841742650372907519340515137 
2 2 -2.075913894879338528198786661960184574127197265625 
2 3 0.000000000000000000000000000000000000000000000000 
2 4 0.000000000000000000000000000000000000000000000000 
2 5 0.296834160262542834374244193895719945430755615234 
2 6 -0.296834160262542834374244193895719945430755615234 
3 3 -2.020719373320712719532821211032569408416748046875 
3 4 0.000000000000000000000000000000000000000000000000 
3 5 0.000000000000000000000000000000000000000000000000 
3 6 0.000000000000000000000000000000000000000000000000 
4 4 -2.020719373320712719532821211032569408416748046875 
4 5 0.000000000000000000000000000000000000000000000000 
4 6 0.000000000000000000000000000000000000000000000000 
5 5 -1.378939448884262120031962695065885782241821289062 
5 6 -0.000226901026886706621340378253748326642380561680 
6 6 -1.378939448884262564121172545128501951694488525391 
*** TEI
0 0 0 0 2.298830560631919261993516556685790419578552246094 
1 0 0 0 0.392036256194701282495884697709698230028152465820 
1 1 0 0 0.570988214021569295830715873307781293988227844238 
1 0 1 0 0.079538698554992404154972973628900945186614990234 
1 1 1 0 0.143041198736468727625847918716317508369684219360 
1 1 1 1 0.417683148130426173949558688036631792783737182617 
2 2 0 0 0.569578307246176640532553392404224723577499389648 
3 3 0 0 0.569578307246176640532553392404224723577499389648 
4 4 0 0 0.569578307246176640532553392404224723577499389648 
2 0 2 0 0.014606695027080259310925391957880492554977536201 
3 0 3 0 0.014606695027080259310925391957880492554977536201 
4 0 4 0 0.014606695027080259310925391957880492554977536201 
2 2 1 0 0.143082917532597636567359700165980029851198196411 
3 3 1 0 0.143082917532597636567359700165980029851198196411 
4 4 1 0 0.143082917532597636567359700165980029851198196411 
2 1 2 0 0.021888097014823183067422363023979414720088243484 
3 1 3 0 0.021888097014823183067422363023979414720088243484 
4 1 4 0 0.021888097014823183067422363023979414720088243484 
2 2 1 1 0.417589267160740074125158116657985374331474304199 
3 3 1 1 0.417589267160740074125158116657985374331474304199 
4 4 1 1 0.417589267160740074125158116657985374331474304199 
2 1 2 1 0.092264939277634905323566272272728383541107177734 
3 1 3 1 0.092264939277634905323566272272728383541107177734 
4 1 4 1 0.092264939277634905323566272272728383541107177734 
2 2 2 2 0.449859041086670907727551593779935501515865325928 
3 2 3 2 0.024249379221171193932171661344909807667136192322 
3 3 2 2 0.401360282644328658641086349234683439135551452637 
3 3 3 3 0.449859041086670907727551593779935501515865325928 
4 2 4 2 0.024249379221171193932171661344909807667136192322 
4 3 4 3 0.024249379221171193932171661344909807667136192322 
4 4 2 2 0.401360282644328658641086349234683439135551452637 
4 4 3 3 0.401360282644328658641086349234683439135551452637 
4 4 4 4 0.449859041086670907727551593779935501515865325928 
5 0 0 0 0.004686069119513619658790037902917902101762592793 
5 1 0 0 0.032725554833873099491725611187575850635766983032 
5 0 1 0 0.000962653173310355704701823942315286330995149910 
5 1 1 0 0.008431579140035047603696227724867640063166618347 
5 0 1 1 0.001786183539218517491234394789501038758317008615 
5 1 1 1 0.029915187785894793021101989438648161012679338455 
5 2 0 0 -0.045489359294793904608944501433143159374594688416 
5 0 2 0 -0.000113749948447253417926211538357961217116098851 
5 2 1 0 -0.011768659734311393699757175568265665788203477859 
5 1 2 0 -0.001014650182875770053139707904676924954401329160 
5 0 2 1 -0.000218421308528310756900958633508480488671921194 
5 2 1 1 -0.042680483143209227425707297243206994608044624329 
5 1 2 1 -0.008094151667739069716533961695859034080058336258 
5 2 2 0 0.001549009669913414734970791286627900262828916311 
5 3 3 0 0.000418344945198810352036955517718297414830885828 
5 4 4 0 0.000418344945198810352036955517718297414830885828 
5 0 2 2 0.001820768511051850963716747244802718341816216707 
5 0 3 3 0.001769497703228202750008746235721446282695978880 
5 0 4 4 0.001769497703228202750008746235721446282695978880 
5 2 2 1 0.012404717935994194477622443173459032550454139709 
5 3 3 1 0.002546720183457793374587341261872097675222903490 
5 4 4 1 0.002546720183457793374587341261872097675222903490 
5 1 2 2 0.032449748073575160334236500148108461871743202209 
5 1 3 3 0.028629255608081868866854335919924778863787651062 
5 1 4 4 0.028629255608081868866854335919924778863787651062 
5 2 2 2 -0.046928181933452148277829962808027630671858787537 
5 2 3 3 -0.040529525578702943477971132324455538764595985413 
5 2 4 4 -0.040529525578702943477971132324455538764595985413 
5 3 3 2 -0.001092762941411781155848226276816603785846382380 
5 4 4 2 -0.001092762941411781155848226276816603785846382380 
5 5 0 0 0.202744788534712866434617239974613767117261886597 
5 0 5 0 0.000012686489403445768233726076434919605162576772 
5 5 1 0 0.052614626078672434295047111163512454368174076080 
5 1 5 0 0.000118637628709741802294184986887870536520495079 
5 5 1 1 0.202071857946593491650588703123503364622592926025 
5 1 5 1 0.005069063499872861373873877965934298117645084858 
5 5 2 0 -0.004742020176678160385541627164229794288985431194 
5 2 5 0 -0.000167628234461423436009452903050487293512560427 
5 5 2 1 -0.050363001828313845587015151750165387056767940521 
5 2 5 1 -0.007799974825737908054601454921339609427377581596 
5 5 2 2 0.219516834515497777369219534193689469248056411743 
5 5 3 3 0.193227463912208130558667562581831589341163635254 
5 5 4 4 0.193227463912208130558667562581831589341163635254 
5 2 5 2 0.012072820533145098981231413404202612582594156265 
5 3 5 3 0.000255106188847996980147148082807007085648365319 
5 4 5 4 0.000255106188847996980147148082807007085648365319 
5 5 5 0 0.000723563521700332766030394626710631200694479048 
5 5 5 1 0.050694509960054631725334672864846652373671531677 
5 5 5 2 -0.081065287772199567939424014184623956680297851562 
5 5 5 5 0.774605943919897788063622101617511361837387084961 
6 0 0 0 0.004686069119513619658790037902917902101762592793 
6 1 0 0 0.032725554833873099491725611187575850635766983032 
6 0 1 0 0.000962653173310355704701823942315286330995149910 
6 1 1 0 0.008431579140035047603696227724867640063166618347 
6 0 1 1 0.001786183539218517491234394789501038758317008615 
6 1 1 1 0.029915187785894793021101989438648161012679338455 
6 2 0 0 0.045489359294793904608944501433143159374594688416 
6 0 2 0 0.000113749948447253417926211538357961217116098851 
6 2 1 0 0.011768659734311393699757175568265665788203477859 
6 1 2 0 0.001014650182875770053139707904676924954401329160 
6 0 2 1 0.000218421308528310756900958633508480488671921194 
6 2 1 1 0.042680483143209227425707297243206994608044624329 
6 1 2 1 0.008094151667739069716533961695859034080058336258 
6 2 2 0 0.001549009669913414734970791286627900262828916311 
6 3 3 0 0.000418344945198810352036955517718297414830885828 
6 4 4 0 0.000418344945198810352036955517718297414830885828 
6 0 2 2 0.001820768511051850963716747244802718341816216707 
6 0 3 3 0.001769497703228202750008746235721446282695978880 
6 0 4 4 0.001769497703228202750008746235721446282695978880 
6 2 2 1 0.012404717935994194477622443173459032550454139709 
6 3 3 1 0.002546720183457793374587341261872097675222903490 
6 4 4 1 0.002546720183457793374587341261872097675222903490 
6 1 2 2 0.032449748073575160334236500148108461871743202209 
6 1 3 3 0.028629255608081868866854335919924778863787651062 
6 1 4 4 0.028629255608081868866854335919924778863787651062 
6 2 2 2 0.046928181933452148277829962808027630671858787537 
6 2 3 3 0.040529525578702943477971132324455538764595985413 
6 2 4 4 0.040529525578702943477971132324455538764595985413 
6 3 3 2 0.001092762941411781155848226276816603785846382380 
6 4 4 2 0.001092762941411781155848226276816603785846382380 
6 5 0 0 0.000034533624672955082733367265790391797963820864 
6 0 5 0 0.000010782993086727458623532219239571361413254635 
6 5 1 0 0.000008504757606591497540995602810731668341759359 
6 1 5 0 0.000096028631860525540619132056630036231581470929 
6 0 5 1 0.000096028631860525540619132056630036231581470929 
6 5 1 1 0.000023750182641506527476960020095475556445308030 
6 1 5 1 0.001736429351199721485277116528322949307039380074 
6 2 5 0 0.000133104058773338428155533219587880466860951856 
6 0 5 2 -0.000133104058773338428155533219587880466860951856 
6 2 5 1 0.002466782816464462273903235356442564807366579771 
6 1 5 2 -0.002466782816464462273903235356442564807366579771 
6 5 2 2 0.000023786548911562507060144314174898738656338537 
6 5 3 3 0.000023727402558171823381124795893093448739818996 
6 5 4 4 0.000023727402558171823381124795893093448739818996 
6 2 5 2 -0.003508957275802965583566539464754896471276879311 
6 3 5 3 0.000037754646002976973697892737469317125942325220 
6 4 5 4 0.000037754646002976973697892737469317125942325220 
6 5 5 0 0.000000105905351603973438792676172153645053342075 
6 0 5 5 0.000615045911851483904919657419441136880777776241 
6 5 5 1 0.000001663337644174461675967676213550028307963657 
6 1 5 5 0.012947221573493393476095292271565995179116725922 
6 5 5 2 -0.000002368040172874995261288874268124082789199747 
6 2 5 5 0.018592470708748594365733453059874591417610645294 
6 5 5 5 0.000011075653481488849632502491360241947404574603 
6 6 0 0 0.202744788534712866434617239974613767117261886597 
6 0 6 0 0.000012686489403445768233726076434919605162576772 
6 6 1 0 0.052614626078672434295047111163512454368174076080 
6 1 6 0 0.000118637628709741802294184986887870536520495079 
6 6 1 1 0.202071857946593491650588703123503364622592926025 
6 1 6 1 0.005069063499872861373873877965934298117645084858 
6 6 2 0 0.004742020176678160385541627164229794288985431194 
6 2 6 0 0.000167628234461423436009452903050487293512560427 
6 6 2 1 0.050363001828313845587015151750165387056767940521 
6 2 6 1 0.007799974825737908054601454921339609427377581596 
6 6 2 2 0.219516834515497777369219534193689469248056411743 
6 6 3 3 0.193227463912208130558667562581831589341163635254 
6 6 4 4 0.193227463912208130558667562581831589341163635254 
6 2 6 2 0.012072820533145098981231413404202612582594156265 
6 3 6 3 0.000255106188847996980147148082807007085648365319 
6 4 6 4 0.000255106188847996980147148082807007085648365319 
6 6 5 0 0.000615045911851483904919657419441136880777776241 
6 5 6 0 0.000000105905351603973438792676172153645053342075 
6 6 5 1 0.012947221573493390006648340317951806355267763138 
6 5 6 1 0.000001663337644174461675967676213550028307963657 
6 6 5 2 -0.018592470708748594365733453059874591417610645294 
6 5 6 2 0.000002368040172874995261288874268124082789199747 
6 6 5 5 0.101373965418314865294391324823664035648107528687 
6 5 6 5 0.000000001356523766074336912799789044506166418858 
6 6 6 0 0.000723563521700332766030394626710631200694479048 
6 6 6 1 0.050694509960054631725334672864846652373671531677 
6 6 6 2 0.081065287772199567939424014184623956680297851562 
6 6 6 5 0.000011075653481488849632502491360241947404574603 
6 6 6 6 0.774605943919897788063622101617511361837387084961 
****  HF Energy = -10000000000000 
****  SO Integrals For DOCI End Here 
number of TEI: 166
Lowest eigenvalue of overlap S = 7.0253347025E-01
0 0 -8.196953716181312188382435124367475509643554687500 
0 1 -0.685827843557645366878716686187544837594032287598 
0 2 -0.000000000000001250068587733315153553981247114280 
0 3 0.000000000000000941011271022461600075676702127089 
0 4 -0.000000000000001276376750192067749756405526439127 
0 5 0.010675305074873592953155210238946892786771059036 
0 6 0.010675305074872829674825780443825351539999246597 
1 1 -2.227209284984812853736002580262720584869384765625 
1 2 -0.000000000000002380953710557319469298676040125429 
1 3 0.000000000000000230738311080012541200113513875924 
1 4 -0.000000000000000097068997424232055397585496309756 
1 5 -0.022070706767377032408994352863373933359980583191 
1 6 -0.022070706767377008122865689188074611593037843704 
2 2 -2.076772566764112593062918676878325641155242919922 
2 3 -0.000000000000000128229599308360322470317022931942 
2 4 -0.000000000000000110306003540254363036245572562298 
2 5 0.025819018664495270443115515490717370994389057159 
2 6 -0.025819018664495832493521731976215960457921028137 
3 3 -2.020719373320711831354401510907337069511413574219 
3 4 -0.000000000000000130904382988635474370625872183406 
3 5 0.000000000000000381363690807183308708647934468912 
3 6 0.000000000000000000948146972625393330916595189735 
4 4 -2.020719373320712719532821211032569408416748046875 
4 5 0.000000000000000563982520828430745677653843474288 
4 6 0.000000000000000009353354236090568251385986009199 
5 5 -1.365655929876966823144357476849108934402465820312 
5 6 -0.004008449583716175955439009470637756749056279659 
6 6 -1.365655929876965268832123001629952341318130493164 

*** PSI4 exiting successfully. Buy a developer a beer!
