    -----------------------------------------------------------------------
          PSI4: An Open-Source Ab Initio Electronic Structure Package
                              PSI 4.0.0-beta5 Driver

    J. M. Turney, A. C. Simmonett, R. M. Parrish, E. G. Hohenstein,
    F. A. Evangelista, J. T. Fermann, B. J. Mintz, L. A. Burns, J. J. Wilke,
    M. L. Abrams, N. J. Russ, M. L. Leininger, C. L. Janssen, E. T. Seidl,
    W. D. Allen, H. F. Schaefer, R. A. King, E. F. Valeev, C. D. Sherrill,
    and T. D. Crawford, WIREs Comput. Mol. Sci., (2011) (doi: 10.1002/wcms.93)

                         Additional Contributions by
    A. E. DePrince, M. Saitow, U. Bozkaya, A. Yu. Sokolov
    -----------------------------------------------------------------------

    Process ID:  22099
    PSI4DATADIR: /usr/local/psi4/share/psi

    Using LocalCommunicator (Number of processes = 1)

    Memory level set to 256.000 MB

  ==> Input File <==

--------------------------------------------------------------------------
#PYTHONPATH must include directory above plugin directory.
#Define either externally or here, then import plugin.

molecule   {
0 1
Be 0 0 0
H  0 0 -4.932232824696
H  0 0 4.932232824696
units au
}
plugin_load("../../mointegrals/mointegrals.so")
set basis sto-3g
set mointegrals print 1
set reference rhf
#set dft_functional b3lyp
scf()

plugin("mointegrals.so")
--------------------------------------------------------------------------
../../mointegrals/mointegrals.so loaded.

*** tstart() called on moesasji
*** at Fri Jan 30 12:19:08 2015


         ---------------------------------------------------------
                                   SCF
            by Justin Turney, Rob Parrish, and Andy Simmonett
                              RHF Reference
                        1 Threads,    256 MiB Core
         ---------------------------------------------------------

  ==> Geometry <==

    Molecular point group: d2h
    Full point group: D_inf_h

    Geometry (in Bohr), charge = 0, multiplicity = 1:

       Center              X                  Y                   Z       
    ------------   -----------------  -----------------  -----------------
          BE          0.000000000000     0.000000000000     0.000000000000
           H          0.000000000000     0.000000000000    -4.932232824696
           H          0.000000000000     0.000000000000     4.932232824696

  Running in d2h symmetry.

  Nuclear repulsion =    1.723357412780671

  Charge       = 0
  Multiplicity = 1
  Electrons    = 6
  Nalpha       = 3
  Nbeta        = 3

  ==> Algorithm <==

  SCF Algorithm Type is PK.
  DIIS enabled.
  MOM disabled.
  Fractional occupation disabled.
  Guess Type is CORE.
  Energy threshold   = 1.00e-06
  Density threshold  = 1.00e-06
  Integral threshold = 0.00e+00

  ==> Primary Basis <==

  Basis Set: sto-3g
    Number of shells: 5
    Number of basis function: 7
    Number of Cartesian functions: 7
    Spherical Harmonics?: true
    Max angular momentum: 1

  ==> Pre-Iterations <==

   -------------------------------------------------------
    Irrep   Nso     Nmo     Nalpha   Nbeta   Ndocc  Nsocc
   -------------------------------------------------------
     Ag         3       3       0       0       0       0
     B1g        0       0       0       0       0       0
     B2g        0       0       0       0       0       0
     B3g        0       0       0       0       0       0
     Au         0       0       0       0       0       0
     B1u        2       2       0       0       0       0
     B2u        1       1       0       0       0       0
     B3u        1       1       0       0       0       0
   -------------------------------------------------------
    Total       7       7       3       3       3       0
   -------------------------------------------------------

  Starting with a DF guess...

 OEINTS: Wrapper to libmints.
   by Justin Turney

   Calculation information:
      Number of atoms:                   3
      Number of AO shells:               5
      Number of SO shells:               4
      Number of primitives:             15
      Number of atomic orbitals:         7
      Number of basis functions:         7

      Number of irreps:                  8
      Number of functions per irrep: [   3    0    0    0    0    2    1    1 ]

      Overlap, kinetic, potential, dipole, and quadrupole integrals
        stored in file 35.

  ==> Integral Setup <==

!!!!!!!!!!!!!!!!!!!!!!!!!!!!!!!!!!!!!!!!!!!!!!!!!
sanity check failed! Gaussian94BasisSetParser::parser: Unable to find the basis set for BE in /usr/local/psi4/share/psi/basis/cc-pvdz-jkfit.gbs
file: /home/mario/Downloads/psi4.0b5/src/lib/libmints/basisset_parser.cc
line: 362
   Turning off DF and switching to PK method.
!!!!!!!!!!!!!!!!!!!!!!!!!!!!!!!!!!!!!!!!!!!!!!!!!
 MINTS: Wrapper to libmints.
   by Justin Turney

   Calculation information:
      Number of atoms:                   3
      Number of AO shells:               5
      Number of SO shells:               4
      Number of primitives:             15
      Number of atomic orbitals:         7
      Number of basis functions:         7

      Number of irreps:                  8
      Integral cutoff                 0.00e+00
      Number of functions per irrep: [   3    0    0    0    0    2    1    1 ]

      Overlap, kinetic, potential, dipole, and quadrupole integrals
        stored in file 35.

      Computing two-electron integrals...done
      Computed 106 non-zero two-electron integrals.
        Stored in file 33.

	Batch   1 pq = [       0,      11] index = [             0,66]
  ==> DiskJK: Disk-Based J/K Matrices <==

    J tasked:                  Yes
    K tasked:                  Yes
    wK tasked:                  No
    Memory (MB):               183
    Schwarz Cutoff:          1E-12

  Minimum eigenvalue in the overlap matrix is 7.0253347025E-01.
  Using Symmetric Orthogonalization.
  SCF Guess: Core (One-Electron) Hamiltonian.

  ==> Iterations <==

                        Total Energy        Delta E     RMS |[F,P]|

   @RHF iter   1:   -14.18937567222452   -1.41894e+01   5.88343e-02 
   @RHF iter   2:   -14.67619817595090   -4.86823e-01   8.69152e-02 DIIS
   @RHF iter   3:   -15.04021934352259   -3.64021e-01   5.59142e-02 DIIS
   @RHF iter   4:   -15.07714632441277   -3.69270e-02   4.34492e-02 DIIS
   @RHF iter   5:   -15.12308059612215   -4.59343e-02   1.23459e-02 DIIS
   @RHF iter   6:   -15.12523765681722   -2.15706e-03   8.04156e-03 DIIS
   @RHF iter   7:   -15.12570996503309   -4.72308e-04   6.73220e-03 DIIS
   @RHF iter   8:   -15.12613885593504   -4.28891e-04   5.26353e-03 DIIS
   @RHF iter   9:   -15.12658237333719   -4.43517e-04   3.06974e-03 DIIS
   @RHF iter  10:   -15.12678832304813   -2.05950e-04   9.51248e-04 DIIS
   @RHF iter  11:   -15.12680881646643   -2.04934e-05   2.36663e-04 DIIS
   @RHF iter  12:   -15.12681014788222   -1.33142e-06   2.98360e-05 DIIS
   @RHF iter  13:   -15.12681016931020   -2.14280e-08   1.31495e-07 DIIS

  ==> Post-Iterations <==

	Orbital Energies (a.u.)
	-----------------------

	Doubly Occupied:                                                      

	   1Ag    -4.559781     2Ag    -0.292454     1B1u   -0.209379  

	Virtual:                                                              

	   3Ag     0.074933     1B2u    0.198908     1B3u    0.198908  
	   2B1u    0.264714  

	Final Occupation by Irrep:
	         Ag   B1g   B2g   B3g    Au   B1u   B2u   B3u 
	DOCC [     2,    0,    0,    0,    0,    1,    0,    0 ]

  Energy converged.

  @RHF Final Energy:   -15.12681016931020

   => Energetics <=

    Nuclear Repulsion Energy =              1.7233574127806710
    One-Electron Energy =                 -23.5771071662093625
    Two-Electron Energy =                   6.7269395841184938
    DFT Exchange-Correlation Energy =       0.0000000000000000
    Empirical Dispersion Energy =           0.0000000000000000
    Total Energy =                        -15.1268101693101968



Properties will be evaluated at   0.000000,   0.000000,   0.000000 Bohr
  ==> Properties <==


Properties computed using the SCF density density matrix
  Nuclear Dipole Moment: (a.u.)
     X:     0.0000      Y:     0.0000      Z:     0.0000

  Electronic Dipole Moment: (a.u.)
     X:     0.0000      Y:     0.0000      Z:     0.0000

  Dipole Moment: (a.u.)
     X:     0.0000      Y:     0.0000      Z:     0.0000     Total:     0.0000

  Dipole Moment: (Debye)
     X:     0.0000      Y:     0.0000      Z:     0.0000     Total:     0.0000


  Saving occupied orbitals to File 180.

*** tstop() called on moesasji at Fri Jan 30 12:19:08 2015
Module time:
	user time   =       0.04 seconds =       0.00 minutes
	system time =       0.00 seconds =       0.00 minutes
	total time  =          0 seconds =       0.00 minutes
Total time:
	user time   =       0.04 seconds =       0.00 minutes
	system time =       0.00 seconds =       0.00 minutes
	total time  =          0 seconds =       0.00 minutes
Reading options from the MOINTEGRALS block
Calling plugin mointegrals.so.
	Presorting SO-basis two-electron integrals.
	Sorting File: SO Ints (nn|nn) nbuckets = 1
	Transforming the one-electron integrals and constructing Fock matrices
	Starting first half-transformation.
	Sorting half-transformed integrals.
	First half integral transformation complete.
	Starting second half-transformation.
	Two-electron integral transformation complete.
  ## MO OEI (Symmetry 0) ##
  Irrep: 1 Size: 3 x 3

                 1            2            3

    1   -8.2624378   -0.2166917   -0.1683619
    2   -0.2166917   -1.9221892   -0.3652383
    3   -0.1683619   -0.3652383   -1.6092003



  Irrep: 2 Size: 0 x 0

	(empty)

  Irrep: 3 Size: 0 x 0

	(empty)

  Irrep: 4 Size: 0 x 0

	(empty)

  Irrep: 5 Size: 0 x 0

	(empty)

  Irrep: 6 Size: 2 x 2

                 1            2

    1   -1.6039263   -0.3404319
    2   -0.3404319   -1.8344938



  Irrep: 7 Size: 1 x 1

                 1

    1   -2.0207194



  Irrep: 8 Size: 1 x 1

                 1

    1   -2.0207194



****  Molecular Integrals For DOCI Start Here 
Nalpha = 3 
Nbeta = 3 
Symmetry Label = d2h 
Nirreps = 8 
Nuclear Repulsion Energy = 1.723357412780671005236854398390278220176696777344 
Number Of Molecular Orbitals =  7 
Irreps Of Molecular Orbitals = 
0 0 0 5 5 6 7 
DOCC =  2  0  0  0  0  1  0  0 
SOCC =  0  0  0  0  0  0  0  0 
****  MO OEI 
0 0 -8.262437816438907844940331415273249149322509765625 
0 1 -0.216691679138652060210290528630139306187629699707 
0 2 -0.168361916116097604101398133025213610380887985229 
1 0 -0.216691679138652060210290528630139306187629699707 
1 1 -1.922189215619057867101560077571775764226913452148 
1 2 -0.365238320440658847942927422991488128900527954102 
2 0 -0.168361916116097604101398133025213610380887985229 
2 1 -0.365238320440658847942927422991488128900527954102 
2 2 -1.609200348568839977758671011542901396751403808594 
3 3 -1.603926293702429006771126296371221542358398437500 
3 4 -0.340431898346693684320740658222348429262638092041 
4 3 -0.340431898346693684320740658222348429262638092041 
4 4 -1.834493753354939027389036709791980683803558349609 
5 5 -2.020719373320712719532821211032569408416748046875 
6 6 -2.020719373320712719532821211032569408416748046875 
****  MO TEI 
0 0 0 0 2.274211612429934081802684886497445404529571533203 
0 0 0 1 0.200920027993387401155089833082456607371568679810 
0 0 0 2 0.159605492424686384866916455393948126584291458130 
0 0 1 0 0.200920027993387401155089833082456607371568679810 
0 0 1 1 0.437585626862219245758467423002002760767936706543 
0 0 1 2 0.180617250142223850772893456451129168272018432617 
0 0 2 0 0.159605492424686384866916455393948126584291458130 
0 0 2 1 0.180617250142223850772893456451129168272018432617 
0 0 2 2 0.340519872999320516449017759441630914807319641113 
0 0 3 3 0.292200149534392605854549174182466231286525726318 
0 0 3 4 0.161505531766121146475256864505354315042495727539 
0 0 4 3 0.161505531766121146475256864505354315042495727539 
0 0 4 4 0.489921889127149901010938037870801053941249847412 
0 0 5 5 0.569211600976544662700007393141277134418487548828 
0 0 6 6 0.569211600976544662700007393141277134418487548828 
0 1 0 0 0.200920027993387401155089833082456607371568679810 
0 1 0 1 0.027751779604953005081702244183361472096294164658 
0 1 0 2 0.022153361006245982783857684239592344965785741806 
0 1 1 0 0.027751779604953005081702244183361472096294164658 
0 1 1 1 0.007118100690491260991443756012131416355259716511 
0 1 1 2 0.005621076286443734207343148057134385453537106514 
0 1 2 0 0.022153361006245982783857684239592344965785741806 
0 1 2 1 0.005621076286443734207343148057134385453537106514 
0 1 2 2 0.004631229082500121913001933648956764955073595047 
0 1 3 3 0.001644765349621253678474852577551246213261038065 
0 1 3 4 0.002986510062486632567646527292026803479529917240 
0 1 4 3 0.002986510062486632567646527292026803479529917240 
0 1 4 4 0.005957675926379942324406790987723070429638028145 
0 1 5 5 0.007234471135243298461903194152000651229172945023 
0 1 6 6 0.007234471135243298461903194152000651229172945023 
0 2 0 0 0.159605492424686412622492071022861637175083160400 
0 2 0 1 0.022153361006245989722751588146820722613483667374 
0 2 0 2 0.017687066495714491576318749821439268998801708221 
0 2 1 0 0.022153361006245989722751588146820722613483667374 
0 2 1 1 0.005526362884301436705081211897550019784830510616 
0 2 1 2 0.004474246961682806604521100979354741866700351238 
0 2 2 0 0.017687066495714491576318749821439268998801708221 
0 2 2 1 0.004474246961682806604521100979354741866700351238 
0 2 2 2 0.003470713969516679882343357377294523757882416248 
0 2 3 3 0.001184750273367839255161948486261280777398496866 
0 2 3 4 0.002441913008594424200348171893892867956310510635 
0 2 4 3 0.002441913008594424200348171893892867956310510635 
0 2 4 4 0.004575548781819939979376155037016360438428819180 
0 2 5 5 0.005469092111466051717161285239399148849770426750 
0 2 6 6 0.005469092111466051717161285239399148849770426750 
1 0 0 0 0.200920027993387401155089833082456607371568679810 
1 0 0 1 0.027751779604953005081702244183361472096294164658 
1 0 0 2 0.022153361006245982783857684239592344965785741806 
1 0 1 0 0.027751779604953005081702244183361472096294164658 
1 0 1 1 0.007118100690491260991443756012131416355259716511 
1 0 1 2 0.005621076286443734207343148057134385453537106514 
1 0 2 0 0.022153361006245982783857684239592344965785741806 
1 0 2 1 0.005621076286443734207343148057134385453537106514 
1 0 2 2 0.004631229082500121913001933648956764955073595047 
1 0 3 3 0.001644765349621253678474852577551246213261038065 
1 0 3 4 0.002986510062486632567646527292026803479529917240 
1 0 4 3 0.002986510062486632567646527292026803479529917240 
1 0 4 4 0.005957675926379942324406790987723070429638028145 
1 0 5 5 0.007234471135243298461903194152000651229172945023 
1 0 6 6 0.007234471135243298461903194152000651229172945023 
1 1 0 0 0.437585626862219245758467423002002760767936706543 
1 1 0 1 0.007118100690491242776847258255656925030052661896 
1 1 0 2 0.005526362884301421959931666094689717283472418785 
1 1 1 0 0.007118100690491242776847258255656925030052661896 
1 1 1 1 0.312846990341225150711323976793210022151470184326 
1 1 1 2 0.026588582249993254758013705441044294275343418121 
1 1 2 0 0.005526362884301421959931666094689717283472418785 
1 1 2 1 0.026588582249993254758013705441044294275343418121 
1 1 2 2 0.300472629425571124972549341691774316132068634033 
1 1 3 3 0.294060440924563737397079421498347073793411254883 
1 1 3 4 0.027890721618543345278196099457090895157307386398 
1 1 4 3 0.027890721618543345278196099457090895157307386398 
1 1 4 4 0.332228243478932427912297953298548236489295959473 
1 1 5 5 0.332555792488510415516600460250629112124443054199 
1 1 6 6 0.332555792488510415516600460250629112124443054199 
1 2 0 0 0.180617250142223823017317840822215657681226730347 
1 2 0 1 0.005621076286443720329555340242677630158141255379 
1 2 0 2 0.004474246961682793594095031153301533777266740799 
1 2 1 0 0.005621076286443720329555340242677630158141255379 
1 2 1 1 0.026588582249993240880225897626587538979947566986 
1 2 1 2 0.100919812083821516801585005396191263571381568909 
1 2 2 0 0.004474246961682793594095031153301533777266740799 
1 2 2 1 0.100919812083821516801585005396191263571381568909 
1 2 2 2 -0.040508080416615445396022465729402028955519199371 
1 2 3 3 -0.055756528615040643059863612052140524610877037048 
1 2 3 4 0.093809107335994137977230877822876209393143653870 
1 2 4 3 0.093809107335994137977230877822876209393143653870 
1 2 4 4 0.036474233687578648532845448926309472881257534027 
1 2 5 5 0.105316597225812103033604216761887073516845703125 
1 2 6 6 0.105316597225812103033604216761887073516845703125 
2 0 0 0 0.159605492424686412622492071022861637175083160400 
2 0 0 1 0.022153361006245989722751588146820722613483667374 
2 0 0 2 0.017687066495714491576318749821439268998801708221 
2 0 1 0 0.022153361006245989722751588146820722613483667374 
2 0 1 1 0.005526362884301436705081211897550019784830510616 
2 0 1 2 0.004474246961682806604521100979354741866700351238 
2 0 2 0 0.017687066495714491576318749821439268998801708221 
2 0 2 1 0.004474246961682806604521100979354741866700351238 
2 0 2 2 0.003470713969516679882343357377294523757882416248 
2 0 3 3 0.001184750273367839255161948486261280777398496866 
2 0 3 4 0.002441913008594424200348171893892867956310510635 
2 0 4 3 0.002441913008594424200348171893892867956310510635 
2 0 4 4 0.004575548781819939979376155037016360438428819180 
2 0 5 5 0.005469092111466051717161285239399148849770426750 
2 0 6 6 0.005469092111466051717161285239399148849770426750 
2 1 0 0 0.180617250142223823017317840822215657681226730347 
2 1 0 1 0.005621076286443720329555340242677630158141255379 
2 1 0 2 0.004474246961682793594095031153301533777266740799 
2 1 1 0 0.005621076286443720329555340242677630158141255379 
2 1 1 1 0.026588582249993240880225897626587538979947566986 
2 1 1 2 0.100919812083821516801585005396191263571381568909 
2 1 2 0 0.004474246961682793594095031153301533777266740799 
2 1 2 1 0.100919812083821516801585005396191263571381568909 
2 1 2 2 -0.040508080416615445396022465729402028955519199371 
2 1 3 3 -0.055756528615040643059863612052140524610877037048 
2 1 3 4 0.093809107335994137977230877822876209393143653870 
2 1 4 3 0.093809107335994137977230877822876209393143653870 
2 1 4 4 0.036474233687578648532845448926309472881257534027 
2 1 5 5 0.105316597225812103033604216761887073516845703125 
2 1 6 6 0.105316597225812103033604216761887073516845703125 
2 2 0 0 0.340519872999320516449017759441630914807319641113 
2 2 0 1 0.004631229082500114106746291753324840101413428783 
2 2 0 2 0.003470713969516673377130322464267919713165611029 
2 2 1 0 0.004631229082500114106746291753324840101413428783 
2 2 1 1 0.300472629425571069461398110433947294950485229492 
2 2 1 2 -0.040508080416615438457128561822173651307821273804 
2 2 2 0 0.003470713969516673377130322464267919713165611029 
2 2 2 1 -0.040508080416615438457128561822173651307821273804 
2 2 2 2 0.336474295831198755291069346640142612159252166748 
2 2 3 3 0.335476405336642025112325882219010964035987854004 
2 2 3 4 -0.038061278896029733520567361892972257919609546661 
2 2 4 3 -0.038061278896029733520567361892972257919609546661 
2 2 4 4 0.313949165932473905904487310181139037013053894043 
2 2 5 5 0.271851352893710762614887244126293808221817016602 
2 2 6 6 0.271851352893710762614887244126293808221817016602 
3 3 0 0 0.292200149534392550343397942924639210104942321777 
3 3 0 1 0.001644765349621248474304424647129962977487593889 
3 3 0 2 0.001184750273367834918353258544243544747587293386 
3 3 1 0 0.001644765349621248474304424647129962977487593889 
3 3 1 1 0.294060440924563737397079421498347073793411254883 
3 3 1 2 -0.055756528615040643059863612052140524610877037048 
3 3 2 0 0.001184750273367834918353258544243544747587293386 
3 3 2 1 -0.055756528615040643059863612052140524610877037048 
3 3 2 2 0.335476405336641969601174650961183942854404449463 
3 3 3 3 0.344052491719084918564419695030665025115013122559 
3 3 3 4 -0.045098717275189402486912371159633039496839046478 
3 3 4 3 -0.045098717275189402486912371159633039496839046478 
3 3 4 4 0.310392267880662708900985080617829225957393646240 
3 3 5 5 0.246474340969603744611049478407949209213256835938 
3 3 6 6 0.246474340969603744611049478407949209213256835938 
3 4 0 0 0.161505531766121174230832480134267825633287429810 
3 4 0 1 0.002986510062486636904455217234044539509341120720 
3 4 0 2 0.002441913008594427669795123847507056780159473419 
3 4 1 0 0.002986510062486636904455217234044539509341120720 
3 4 1 1 0.027890721618543334869855243596248328685760498047 
3 4 1 2 0.093809107335994151855018685637332964688539505005 
3 4 2 0 0.002441913008594427669795123847507056780159473419 
3 4 2 1 0.093809107335994151855018685637332964688539505005 
3 4 2 2 -0.038061278896029733520567361892972257919609546661 
3 4 3 3 -0.045098717275189409425806275066861417144536972046 
3 4 3 4 0.095804251500291842669199127158208284527063369751 
3 4 4 3 0.095804251500291842669199127158208284527063369751 
3 4 4 4 0.046653678768638726093165303154819412156939506531 
3 4 5 5 0.093201969879377788430474538472481071949005126953 
3 4 6 6 0.093201969879377788430474538472481071949005126953 
4 3 0 0 0.161505531766121174230832480134267825633287429810 
4 3 0 1 0.002986510062486636904455217234044539509341120720 
4 3 0 2 0.002441913008594427669795123847507056780159473419 
4 3 1 0 0.002986510062486636904455217234044539509341120720 
4 3 1 1 0.027890721618543334869855243596248328685760498047 
4 3 1 2 0.093809107335994151855018685637332964688539505005 
4 3 2 0 0.002441913008594427669795123847507056780159473419 
4 3 2 1 0.093809107335994151855018685637332964688539505005 
4 3 2 2 -0.038061278896029733520567361892972257919609546661 
4 3 3 3 -0.045098717275189409425806275066861417144536972046 
4 3 3 4 0.095804251500291842669199127158208284527063369751 
4 3 4 3 0.095804251500291842669199127158208284527063369751 
4 3 4 4 0.046653678768638726093165303154819412156939506531 
4 3 5 5 0.093201969879377788430474538472481071949005126953 
4 3 6 6 0.093201969879377788430474538472481071949005126953 
4 4 0 0 0.489921889127149956522089269128628075122833251953 
4 4 0 1 0.005957675926379962273726764721004656166769564152 
4 4 0 2 0.004575548781819955591887438828280210145749151707 
4 4 1 0 0.005957675926379962273726764721004656166769564152 
4 4 1 1 0.332228243478932483423449184556375257670879364014 
4 4 1 2 0.036474233687578662410633256740766228176653385162 
4 4 2 0 0.004575548781819955591887438828280210145749151707 
4 4 2 1 0.036474233687578662410633256740766228176653385162 
4 4 2 2 0.313949165932473850393336078923312015831470489502 
4 4 3 3 0.310392267880662764412136311875656247138977050781 
4 4 3 4 0.046653678768638726093165303154819412156939506531 
4 4 4 3 0.046653678768638726093165303154819412156939506531 
4 4 4 4 0.372779233156219802491904147245804779231548309326 
4 4 5 5 0.352303664459388043983523175484151579439640045166 
4 4 6 6 0.352303664459388043983523175484151579439640045166 
5 5 0 0 0.569211600976544662700007393141277134418487548828 
5 5 0 1 0.007234471135243298461903194152000651229172945023 
5 5 0 2 0.005469092111466051717161285239399148849770426750 
5 5 1 0 0.007234471135243298461903194152000651229172945023 
5 5 1 1 0.332555792488510415516600460250629112124443054199 
5 5 1 2 0.105316597225812103033604216761887073516845703125 
5 5 2 0 0.005469092111466051717161285239399148849770426750 
5 5 2 1 0.105316597225812103033604216761887073516845703125 
5 5 2 2 0.271851352893710762614887244126293808221817016602 
5 5 3 3 0.246474340969603744611049478407949209213256835938 
5 5 3 4 0.093201969879377788430474538472481071949005126953 
5 5 4 3 0.093201969879377788430474538472481071949005126953 
5 5 4 4 0.352303664459388043983523175484151579439640045166 
5 5 5 5 0.449859041086670907727551593779935501515865325928 
5 5 6 6 0.401360282644328658641086349234683439135551452637 
6 6 0 0 0.569211600976544662700007393141277134418487548828 
6 6 0 1 0.007234471135243298461903194152000651229172945023 
6 6 0 2 0.005469092111466051717161285239399148849770426750 
6 6 1 0 0.007234471135243298461903194152000651229172945023 
6 6 1 1 0.332555792488510415516600460250629112124443054199 
6 6 1 2 0.105316597225812103033604216761887073516845703125 
6 6 2 0 0.005469092111466051717161285239399148849770426750 
6 6 2 1 0.105316597225812103033604216761887073516845703125 
6 6 2 2 0.271851352893710762614887244126293808221817016602 
6 6 3 3 0.246474340969603744611049478407949209213256835938 
6 6 3 4 0.093201969879377788430474538472481071949005126953 
6 6 4 3 0.093201969879377788430474538472481071949005126953 
6 6 4 4 0.352303664459388043983523175484151579439640045166 
6 6 5 5 0.401360282644328658641086349234683439135551452637 
6 6 6 6 0.449859041086670907727551593779935501515865325928 
5 6 5 6 0.024249379221171193932171661344909807667136192322 
5 6 6 5 0.024249379221171193932171661344909807667136192322 
6 5 5 6 0.024249379221171193932171661344909807667136192322 
6 5 6 5 0.024249379221171193932171661344909807667136192322 
3 6 3 6 0.006260027096343278446566316119969997089356184006 
3 6 4 6 0.010696387563460859476682784929835179354995489120 
3 6 6 3 0.006260027096343278446566316119969997089356184006 
3 6 6 4 0.010696387563460859476682784929835179354995489120 
4 6 3 6 0.010696387563460857741959308953028084943071007729 
4 6 4 6 0.018761261580086615458062837547004164662212133408 
4 6 6 3 0.010696387563460857741959308953028084943071007729 
4 6 6 4 0.018761261580086615458062837547004164662212133408 
6 3 3 6 0.006260027096343278446566316119969997089356184006 
6 3 4 6 0.010696387563460859476682784929835179354995489120 
6 3 6 3 0.006260027096343278446566316119969997089356184006 
6 3 6 4 0.010696387563460859476682784929835179354995489120 
6 4 3 6 0.010696387563460857741959308953028084943071007729 
6 4 4 6 0.018761261580086615458062837547004164662212133408 
6 4 6 3 0.010696387563460857741959308953028084943071007729 
6 4 6 4 0.018761261580086615458062837547004164662212133408 
3 5 3 5 0.006260027096343278446566316119969997089356184006 
3 5 4 5 0.010696387563460859476682784929835179354995489120 
3 5 5 3 0.006260027096343278446566316119969997089356184006 
3 5 5 4 0.010696387563460859476682784929835179354995489120 
4 5 3 5 0.010696387563460857741959308953028084943071007729 
4 5 4 5 0.018761261580086615458062837547004164662212133408 
4 5 5 3 0.010696387563460857741959308953028084943071007729 
4 5 5 4 0.018761261580086615458062837547004164662212133408 
5 3 3 5 0.006260027096343278446566316119969997089356184006 
5 3 4 5 0.010696387563460859476682784929835179354995489120 
5 3 5 3 0.006260027096343278446566316119969997089356184006 
5 3 5 4 0.010696387563460859476682784929835179354995489120 
5 4 3 5 0.010696387563460857741959308953028084943071007729 
5 4 4 5 0.018761261580086615458062837547004164662212133408 
5 4 5 3 0.010696387563460857741959308953028084943071007729 
5 4 5 4 0.018761261580086615458062837547004164662212133408 
0 3 0 3 0.003374533475782253745534067235212205559946596622 
0 3 0 4 0.006619330675440853947733010897991334786638617516 
0 3 1 3 -0.005364019625211127913211317519426302169449627399 
0 3 1 4 -0.006176767274369541517453630063982927822507917881 
0 3 2 3 -0.000955273448224028937612872791618201517849229276 
0 3 2 4 -0.006042552711136651814871623145108969765715301037 
0 3 3 0 0.003374533475782253745534067235212205559946596622 
0 3 3 1 -0.005364019625211127913211317519426302169449627399 
0 3 3 2 -0.000955273448224028937612872791618201517849229276 
0 3 4 0 0.006619330675440853947733010897991334786638617516 
0 3 4 1 -0.006176767274369541517453630063982927822507917881 
0 3 4 2 -0.006042552711136651814871623145108969765715301037 
0 4 0 3 0.006619330675440853947733010897991334786638617516 
0 4 0 4 0.012989598359066031885156178304896457120776176453 
0 4 1 3 -0.010365544883082831659204536833840393228456377983 
0 4 1 4 -0.011745004723965626891590829927736194804310798645 
0 4 2 3 -0.001650046313428426723521336150213301152689382434 
0 4 2 4 -0.011772873472661942242933896807244309457018971443 
0 4 3 0 0.006619330675440853947733010897991334786638617516 
0 4 3 1 -0.010365544883082831659204536833840393228456377983 
0 4 3 2 -0.001650046313428426723521336150213301152689382434 
0 4 4 0 0.012989598359066031885156178304896457120776176453 
0 4 4 1 -0.011745004723965626891590829927736194804310798645 
0 4 4 2 -0.011772873472661942242933896807244309457018971443 
1 3 0 3 -0.005364019625211127045849579531022754963487386703 
1 3 0 4 -0.010365544883082829924481060857033298816531896591 
1 3 1 3 0.118652134092185571057065374134253943338990211487 
1 3 1 4 -0.013357443238648581892991096253808791516348719597 
1 3 2 3 -0.111081652868905075837169249552971450611948966980 
1 3 2 4 0.110044266221659803317578507630969397723674774170 
1 3 3 0 -0.005364019625211127045849579531022754963487386703 
1 3 3 1 0.118652134092185571057065374134253943338990211487 
1 3 3 2 -0.111081652868905075837169249552971450611948966980 
1 3 4 0 -0.010365544883082829924481060857033298816531896591 
1 3 4 1 -0.013357443238648581892991096253808791516348719597 
1 3 4 2 0.110044266221659803317578507630969397723674774170 
1 4 0 3 -0.006176767274369540650091892075579380616545677185 
1 4 0 4 -0.011745004723965626891590829927736194804310798645 
1 4 1 3 -0.013357443238648574954097192346580413868650794029 
1 4 1 4 0.057082842143332340745232045264856424182653427124 
1 4 2 3 0.063088236558699800626826004190661478787660598755 
1 4 2 4 -0.010462591448837946228600515041762264445424079895 
1 4 3 0 -0.006176767274369540650091892075579380616545677185 
1 4 3 1 -0.013357443238648574954097192346580413868650794029 
1 4 3 2 0.063088236558699800626826004190661478787660598755 
1 4 4 0 -0.011745004723965626891590829927736194804310798645 
1 4 4 1 0.057082842143332340745232045264856424182653427124 
1 4 4 2 -0.010462591448837946228600515041762264445424079895 
2 3 0 3 -0.000955273448224028829192655543067758117103949189 
2 3 0 4 -0.001650046313428426506680901653112414351198822260 
2 3 1 3 -0.111081652868905075837169249552971450611948966980 
2 3 1 4 0.063088236558699800626826004190661478787660598755 
2 3 2 3 0.150197440562883810510896864798269234597682952881 
2 3 2 4 -0.102036756544863438378456521604675799608230590820 
2 3 3 0 -0.000955273448224028829192655543067758117103949189 
2 3 3 1 -0.111081652868905075837169249552971450611948966980 
2 3 3 2 0.150197440562883810510896864798269234597682952881 
2 3 4 0 -0.001650046313428426506680901653112414351198822260 
2 3 4 1 0.063088236558699800626826004190661478787660598755 
2 3 4 2 -0.102036756544863438378456521604675799608230590820 
2 4 0 3 -0.006042552711136650947509885156705422559753060341 
2 4 0 4 -0.011772873472661940508210420830437215045094490051 
2 4 1 3 0.110044266221659803317578507630969397723674774170 
2 4 1 4 -0.010462591448837961841111798833026114152744412422 
2 4 2 3 -0.102036756544863424500668713790219044312834739685 
2 4 2 4 0.105791747445984143927155685105390148237347602844 
2 4 3 0 -0.006042552711136650947509885156705422559753060341 
2 4 3 1 0.110044266221659803317578507630969397723674774170 
2 4 3 2 -0.102036756544863424500668713790219044312834739685 
2 4 4 0 -0.011772873472661940508210420830437215045094490051 
2 4 4 1 -0.010462591448837961841111798833026114152744412422 
2 4 4 2 0.105791747445984143927155685105390148237347602844 
3 0 0 3 0.003374533475782253745534067235212205559946596622 
3 0 0 4 0.006619330675440853947733010897991334786638617516 
3 0 1 3 -0.005364019625211127913211317519426302169449627399 
3 0 1 4 -0.006176767274369541517453630063982927822507917881 
3 0 2 3 -0.000955273448224028937612872791618201517849229276 
3 0 2 4 -0.006042552711136651814871623145108969765715301037 
3 0 3 0 0.003374533475782253745534067235212205559946596622 
3 0 3 1 -0.005364019625211127913211317519426302169449627399 
3 0 3 2 -0.000955273448224028937612872791618201517849229276 
3 0 4 0 0.006619330675440853947733010897991334786638617516 
3 0 4 1 -0.006176767274369541517453630063982927822507917881 
3 0 4 2 -0.006042552711136651814871623145108969765715301037 
3 1 0 3 -0.005364019625211127045849579531022754963487386703 
3 1 0 4 -0.010365544883082829924481060857033298816531896591 
3 1 1 3 0.118652134092185571057065374134253943338990211487 
3 1 1 4 -0.013357443238648581892991096253808791516348719597 
3 1 2 3 -0.111081652868905075837169249552971450611948966980 
3 1 2 4 0.110044266221659803317578507630969397723674774170 
3 1 3 0 -0.005364019625211127045849579531022754963487386703 
3 1 3 1 0.118652134092185571057065374134253943338990211487 
3 1 3 2 -0.111081652868905075837169249552971450611948966980 
3 1 4 0 -0.010365544883082829924481060857033298816531896591 
3 1 4 1 -0.013357443238648581892991096253808791516348719597 
3 1 4 2 0.110044266221659803317578507630969397723674774170 
3 2 0 3 -0.000955273448224028829192655543067758117103949189 
3 2 0 4 -0.001650046313428426506680901653112414351198822260 
3 2 1 3 -0.111081652868905075837169249552971450611948966980 
3 2 1 4 0.063088236558699800626826004190661478787660598755 
3 2 2 3 0.150197440562883810510896864798269234597682952881 
3 2 2 4 -0.102036756544863438378456521604675799608230590820 
3 2 3 0 -0.000955273448224028829192655543067758117103949189 
3 2 3 1 -0.111081652868905075837169249552971450611948966980 
3 2 3 2 0.150197440562883810510896864798269234597682952881 
3 2 4 0 -0.001650046313428426506680901653112414351198822260 
3 2 4 1 0.063088236558699800626826004190661478787660598755 
3 2 4 2 -0.102036756544863438378456521604675799608230590820 
4 0 0 3 0.006619330675440853947733010897991334786638617516 
4 0 0 4 0.012989598359066031885156178304896457120776176453 
4 0 1 3 -0.010365544883082831659204536833840393228456377983 
4 0 1 4 -0.011745004723965626891590829927736194804310798645 
4 0 2 3 -0.001650046313428426723521336150213301152689382434 
4 0 2 4 -0.011772873472661942242933896807244309457018971443 
4 0 3 0 0.006619330675440853947733010897991334786638617516 
4 0 3 1 -0.010365544883082831659204536833840393228456377983 
4 0 3 2 -0.001650046313428426723521336150213301152689382434 
4 0 4 0 0.012989598359066031885156178304896457120776176453 
4 0 4 1 -0.011745004723965626891590829927736194804310798645 
4 0 4 2 -0.011772873472661942242933896807244309457018971443 
4 1 0 3 -0.006176767274369540650091892075579380616545677185 
4 1 0 4 -0.011745004723965626891590829927736194804310798645 
4 1 1 3 -0.013357443238648574954097192346580413868650794029 
4 1 1 4 0.057082842143332340745232045264856424182653427124 
4 1 2 3 0.063088236558699800626826004190661478787660598755 
4 1 2 4 -0.010462591448837946228600515041762264445424079895 
4 1 3 0 -0.006176767274369540650091892075579380616545677185 
4 1 3 1 -0.013357443238648574954097192346580413868650794029 
4 1 3 2 0.063088236558699800626826004190661478787660598755 
4 1 4 0 -0.011745004723965626891590829927736194804310798645 
4 1 4 1 0.057082842143332340745232045264856424182653427124 
4 1 4 2 -0.010462591448837946228600515041762264445424079895 
4 2 0 3 -0.006042552711136650947509885156705422559753060341 
4 2 0 4 -0.011772873472661940508210420830437215045094490051 
4 2 1 3 0.110044266221659803317578507630969397723674774170 
4 2 1 4 -0.010462591448837961841111798833026114152744412422 
4 2 2 3 -0.102036756544863424500668713790219044312834739685 
4 2 2 4 0.105791747445984143927155685105390148237347602844 
4 2 3 0 -0.006042552711136650947509885156705422559753060341 
4 2 3 1 0.110044266221659803317578507630969397723674774170 
4 2 3 2 -0.102036756544863424500668713790219044312834739685 
4 2 4 0 -0.011772873472661940508210420830437215045094490051 
4 2 4 1 -0.010462591448837961841111798833026114152744412422 
4 2 4 2 0.105791747445984143927155685105390148237347602844 
0 5 0 5 0.015645494182162395652158082270943850744515657425 
0 5 1 5 -0.016302842334380052841114050465876061934977769852 
0 5 2 5 -0.012932272705746329297116226086927781580016016960 
0 5 5 0 0.015645494182162395652158082270943850744515657425 
0 5 5 1 -0.016302842334380052841114050465876061934977769852 
0 5 5 2 -0.012932272705746329297116226086927781580016016960 
1 5 0 5 -0.016302842334380056310561002419490250758826732635 
1 5 1 5 0.054950737540241677281382948194732307456433773041 
1 5 2 5 0.042510910064731510793478719278937205672264099121 
1 5 5 0 -0.016302842334380056310561002419490250758826732635 
1 5 5 1 0.054950737540241677281382948194732307456433773041 
1 5 5 2 0.042510910064731510793478719278937205672264099121 
2 5 0 5 -0.012932272705746331031839702063734875991940498352 
2 5 1 5 0.042510910064731510793478719278937205672264099121 
2 5 2 5 0.033129443178131642855355210031120805069804191589 
2 5 5 0 -0.012932272705746331031839702063734875991940498352 
2 5 5 1 0.042510910064731510793478719278937205672264099121 
2 5 5 2 0.033129443178131642855355210031120805069804191589 
5 0 0 5 0.015645494182162395652158082270943850744515657425 
5 0 1 5 -0.016302842334380052841114050465876061934977769852 
5 0 2 5 -0.012932272705746329297116226086927781580016016960 
5 0 5 0 0.015645494182162395652158082270943850744515657425 
5 0 5 1 -0.016302842334380052841114050465876061934977769852 
5 0 5 2 -0.012932272705746329297116226086927781580016016960 
5 1 0 5 -0.016302842334380056310561002419490250758826732635 
5 1 1 5 0.054950737540241677281382948194732307456433773041 
5 1 2 5 0.042510910064731510793478719278937205672264099121 
5 1 5 0 -0.016302842334380056310561002419490250758826732635 
5 1 5 1 0.054950737540241677281382948194732307456433773041 
5 1 5 2 0.042510910064731510793478719278937205672264099121 
5 2 0 5 -0.012932272705746331031839702063734875991940498352 
5 2 1 5 0.042510910064731510793478719278937205672264099121 
5 2 2 5 0.033129443178131642855355210031120805069804191589 
5 2 5 0 -0.012932272705746331031839702063734875991940498352 
5 2 5 1 0.042510910064731510793478719278937205672264099121 
5 2 5 2 0.033129443178131642855355210031120805069804191589 
0 6 0 6 0.015645494182162395652158082270943850744515657425 
0 6 1 6 -0.016302842334380052841114050465876061934977769852 
0 6 2 6 -0.012932272705746329297116226086927781580016016960 
0 6 6 0 0.015645494182162395652158082270943850744515657425 
0 6 6 1 -0.016302842334380052841114050465876061934977769852 
0 6 6 2 -0.012932272705746329297116226086927781580016016960 
1 6 0 6 -0.016302842334380056310561002419490250758826732635 
1 6 1 6 0.054950737540241677281382948194732307456433773041 
1 6 2 6 0.042510910064731510793478719278937205672264099121 
1 6 6 0 -0.016302842334380056310561002419490250758826732635 
1 6 6 1 0.054950737540241677281382948194732307456433773041 
1 6 6 2 0.042510910064731510793478719278937205672264099121 
2 6 0 6 -0.012932272705746331031839702063734875991940498352 
2 6 1 6 0.042510910064731510793478719278937205672264099121 
2 6 2 6 0.033129443178131642855355210031120805069804191589 
2 6 6 0 -0.012932272705746331031839702063734875991940498352 
2 6 6 1 0.042510910064731510793478719278937205672264099121 
2 6 6 2 0.033129443178131642855355210031120805069804191589 
6 0 0 6 0.015645494182162395652158082270943850744515657425 
6 0 1 6 -0.016302842334380052841114050465876061934977769852 
6 0 2 6 -0.012932272705746329297116226086927781580016016960 
6 0 6 0 0.015645494182162395652158082270943850744515657425 
6 0 6 1 -0.016302842334380052841114050465876061934977769852 
6 0 6 2 -0.012932272705746329297116226086927781580016016960 
6 1 0 6 -0.016302842334380056310561002419490250758826732635 
6 1 1 6 0.054950737540241677281382948194732307456433773041 
6 1 2 6 0.042510910064731510793478719278937205672264099121 
6 1 6 0 -0.016302842334380056310561002419490250758826732635 
6 1 6 1 0.054950737540241677281382948194732307456433773041 
6 1 6 2 0.042510910064731510793478719278937205672264099121 
6 2 0 6 -0.012932272705746331031839702063734875991940498352 
6 2 1 6 0.042510910064731510793478719278937205672264099121 
6 2 2 6 0.033129443178131642855355210031120805069804191589 
6 2 6 0 -0.012932272705746331031839702063734875991940498352 
6 2 6 1 0.042510910064731510793478719278937205672264099121 
6 2 6 2 0.033129443178131642855355210031120805069804191589 
****  HF Energy = -15.126810169311008635872894956264644861221313476562 
****  Molecular Integrals For DOCI End Here 

*** PSI4 exiting successfully. Buy a developer a beer!
