    -----------------------------------------------------------------------
          PSI4: An Open-Source Ab Initio Electronic Structure Package
                              PSI 4.0.0-beta5 Driver

    J. M. Turney, A. C. Simmonett, R. M. Parrish, E. G. Hohenstein,
    F. A. Evangelista, J. T. Fermann, B. J. Mintz, L. A. Burns, J. J. Wilke,
    M. L. Abrams, N. J. Russ, M. L. Leininger, C. L. Janssen, E. T. Seidl,
    W. D. Allen, H. F. Schaefer, R. A. King, E. F. Valeev, C. D. Sherrill,
    and T. D. Crawford, WIREs Comput. Mol. Sci., (2011) (doi: 10.1002/wcms.93)

                         Additional Contributions by
    A. E. DePrince, M. Saitow, U. Bozkaya, A. Yu. Sokolov
    -----------------------------------------------------------------------

    Process ID:  22494
    PSI4DATADIR: /usr/local/psi4/share/psi

    Using LocalCommunicator (Number of processes = 1)

    Memory level set to 256.000 MB

  ==> Input File <==

--------------------------------------------------------------------------
#PYTHONPATH must include directory above plugin directory.
#Define either externally or here, then import plugin.

molecule beh2psi {
0 1
O                
H                1  1.1
H                1  1.1   2 104
units angstrom
symmetry c1
}
plugin_load("../sointegrals/sointegrals.so")
set basis sto-3g
#set DOCC = [3, 0 ,0 ,0, 0 ,2,1,1]
set sointegrals print 1
set reference rhf
scf() 

plugin("sointegrals.so")
--------------------------------------------------------------------------
../sointegrals/sointegrals.so loaded.

*** tstart() called on moesasji
*** at Wed Jul  1 12:31:25 2015


         ---------------------------------------------------------
                                   SCF
            by Justin Turney, Rob Parrish, and Andy Simmonett
                              RHF Reference
                        1 Threads,    256 MiB Core
         ---------------------------------------------------------

  ==> Geometry <==

    Molecular point group: c1
    Full point group: C2v

    Geometry (in Angstrom), charge = 0, multiplicity = 1:

       Center              X                  Y                   Z       
    ------------   -----------------  -----------------  -----------------
           O          0.000000000000     0.000000000000    -0.075791843589
           H          0.000000000000    -0.866811828967     0.601435779270
           H          0.000000000000     0.866811828967     0.601435779270

  Running in c1 symmetry.

  Nuclear repulsion =    8.002366450719078

  Charge       = 0
  Multiplicity = 1
  Electrons    = 10
  Nalpha       = 5
  Nbeta        = 5

  ==> Algorithm <==

  SCF Algorithm Type is PK.
  DIIS enabled.
  MOM disabled.
  Fractional occupation disabled.
  Guess Type is CORE.
  Energy threshold   = 1.00e-06
  Density threshold  = 1.00e-06
  Integral threshold = 0.00e+00

  ==> Primary Basis <==

  Basis Set: sto-3g
    Number of shells: 5
    Number of basis function: 7
    Number of Cartesian functions: 7
    Spherical Harmonics?: true
    Max angular momentum: 1

  ==> Pre-Iterations <==

   -------------------------------------------------------
    Irrep   Nso     Nmo     Nalpha   Nbeta   Ndocc  Nsocc
   -------------------------------------------------------
     A          7       7       0       0       0       0
   -------------------------------------------------------
    Total       7       7       5       5       5       0
   -------------------------------------------------------

  Starting with a DF guess...

 OEINTS: Wrapper to libmints.
   by Justin Turney

   Calculation information:
      Number of atoms:                   3
      Number of AO shells:               5
      Number of SO shells:               5
      Number of primitives:             15
      Number of atomic orbitals:         7
      Number of basis functions:         7

      Number of irreps:                  1
      Number of functions per irrep: [   7 ]

      Overlap, kinetic, potential, dipole, and quadrupole integrals
        stored in file 35.

  ==> Integral Setup <==

  ==> DFJK: Density-Fitted J/K Matrices <==

    J tasked:                  Yes
    K tasked:                  Yes
    wK tasked:                  No
    OpenMP threads:              1
    Integrals threads:           1
    Memory (MB):               183
    Algorithm:                Core
    Integral Cache:           NONE
    Schwarz Cutoff:          1E-12
    Fitting Condition:       1E-12

   => Auxiliary Basis Set <=

  Basis Set: CC-PVDZ-JKFIT
    Number of shells: 42
    Number of basis function: 116
    Number of Cartesian functions: 131
    Spherical Harmonics?: true
    Max angular momentum: 3

  Minimum eigenvalue in the overlap matrix is 4.3422219878E-01.
  Using Symmetric Orthogonalization.
  SCF Guess: Core (One-Electron) Hamiltonian.

  ==> Iterations <==

                           Total Energy        Delta E     RMS |[F,P]|

   @DF-RHF iter   1:   -73.28585429061485   -7.32859e+01   1.20729e-01 
   @DF-RHF iter   2:   -74.82821959076320   -1.54237e+00   5.08137e-02 DIIS
   @DF-RHF iter   3:   -74.93874865848043   -1.10529e-01   7.31091e-03 DIIS
   @DF-RHF iter   4:   -74.94187671936213   -3.12806e-03   1.73460e-03 DIIS
   @DF-RHF iter   5:   -74.94208021240865   -2.03493e-04   5.25911e-04 DIIS
   @DF-RHF iter   6:   -74.94210567208077   -2.54597e-05   4.36657e-05 DIIS
   @DF-RHF iter   7:   -74.94210579993712   -1.27856e-07   2.94677e-07 DIIS

  DF guess converged.

  ==> Integral Setup <==

 MINTS: Wrapper to libmints.
   by Justin Turney

   Calculation information:
      Number of atoms:                   3
      Number of AO shells:               5
      Number of SO shells:               5
      Number of primitives:             15
      Number of atomic orbitals:         7
      Number of basis functions:         7

      Number of irreps:                  1
      Integral cutoff                 0.00e+00
      Number of functions per irrep: [   7 ]

      Overlap, kinetic, potential, dipole, and quadrupole integrals
        stored in file 35.

      Computing two-electron integrals...done
      Computed 231 non-zero two-electron integrals.
        Stored in file 33.

	Batch   1 pq = [       0,      28] index = [             0,406]
  ==> DiskJK: Disk-Based J/K Matrices <==

    J tasked:                  Yes
    K tasked:                  Yes
    wK tasked:                  No
    Memory (MB):               183
    Schwarz Cutoff:          1E-12

   @RHF iter   8:   -74.94207989668809    2.59032e-05   2.98949e-06 DIIS
   @RHF iter   9:   -74.94207989706338   -3.75294e-10   7.05519e-07 DIIS

  ==> Post-Iterations <==

	Orbital Energies (a.u.)
	-----------------------

	Doubly Occupied:                                                      

	   1A    -20.262892     2A     -1.209697     3A     -0.547965  
	   4A     -0.436528     5A     -0.387587  

	Virtual:                                                              

	   6A      0.477618     7A      0.588139  

	Final Occupation by Irrep:
	          A 
	DOCC [     5 ]

  Energy converged.

  @RHF Final Energy:   -74.94207989706338

   => Energetics <=

    Nuclear Repulsion Energy =              8.0023664507190784
    One-Electron Energy =                -120.1995400394569771
    Two-Electron Energy =                  37.2550936916745172
    DFT Exchange-Correlation Energy =       0.0000000000000000
    Empirical Dispersion Energy =           0.0000000000000000
    Total Energy =                        -74.9420798970633797



Properties will be evaluated at   0.000000,   0.000000,   0.000000 Bohr
  ==> Properties <==


Properties computed using the SCF density density matrix
  Nuclear Dipole Moment: (a.u.)
     X:     0.0000      Y:    -0.0000      Z:     1.1273

  Electronic Dipole Moment: (a.u.)
     X:     0.0000      Y:     0.0000      Z:    -0.5238

  Dipole Moment: (a.u.)
     X:     0.0000      Y:     0.0000      Z:     0.6035     Total:     0.6035

  Dipole Moment: (Debye)
     X:     0.0000      Y:     0.0000      Z:     1.5340     Total:     1.5340


  Saving occupied orbitals to File 180.

*** tstop() called on moesasji at Wed Jul  1 12:31:25 2015
Module time:
	user time   =       0.06 seconds =       0.00 minutes
	system time =       0.00 seconds =       0.00 minutes
	total time  =          0 seconds =       0.00 minutes
Total time:
	user time   =       0.06 seconds =       0.00 minutes
	system time =       0.00 seconds =       0.00 minutes
	total time  =          0 seconds =       0.00 minutes
Reading options from the SOINTEGRALS block
Calling plugin sointegrals.so.
    Molecular point group: c1
    Full point group: C2v

    Geometry (in Angstrom), charge = 0, multiplicity = 1:

       Center              X                  Y                   Z       
    ------------   -----------------  -----------------  -----------------
           O          0.000000000000     0.000000000000    -0.075791843589
           H          0.000000000000    -0.866811828967     0.601435779270
           H          0.000000000000     0.866811828967     0.601435779270

If anything went wrong: Is c1 equal to c1?
  ## Overlap (Symmetry 0) ##
  Irrep: 1 Size: 7 x 7

                 1            2            3            4            5

    1    1.0000000    0.2367039    0.0000000    0.0000000    0.0000000
    2    0.2367039    1.0000000   -0.0000000    0.0000000    0.0000000
    3    0.0000000   -0.0000000    1.0000000    0.0000000    0.0000000
    4    0.0000000    0.0000000    0.0000000    1.0000000    0.0000000
    5    0.0000000    0.0000000    0.0000000    0.0000000    1.0000000
    6    0.0384056    0.3861388    0.2097269    0.0000000   -0.2684382
    7    0.0384056    0.3861388    0.2097269    0.0000000    0.2684382

                 6            7

    1    0.0384056    0.0384056
    2    0.3861388    0.3861388
    3    0.2097269    0.2097269
    4    0.0000000    0.0000000
    5   -0.2684382    0.2684382
    6    1.0000000    0.1817598
    7    0.1817598    1.0000000






****  Molecular Integrals For DOCI Start Here 
Nalpha = 5 
Nbeta = 5 
Symmetry Label = c1 
Nirreps = 1 
Nuclear Repulsion Energy = 8.002366450719078372344483796041458845138549804688 
Number Of SO Orbitals =  7 
Irreps Of SO Orbitals = 
 0  0  0  0  0  0  0 


  ## Overlap (Symmetry 0) ##
  Irrep: 1 Size: 7 x 7

                 1            2            3            4            5

    1    1.0000000    0.2367039    0.0000000    0.0000000    0.0000000
    2    0.2367039    1.0000000   -0.0000000    0.0000000    0.0000000
    3    0.0000000   -0.0000000    1.0000000    0.0000000    0.0000000
    4    0.0000000    0.0000000    0.0000000    1.0000000    0.0000000
    5    0.0000000    0.0000000    0.0000000    0.0000000    1.0000000
    6    0.0384056    0.3861388    0.2097269    0.0000000   -0.2684382
    7    0.0384056    0.3861388    0.2097269    0.0000000    0.2684382

                 6            7

    1    0.0384056    0.0384056
    2    0.3861388    0.3861388
    3    0.2097269    0.2097269
    4    0.0000000    0.0000000
    5   -0.2684382    0.2684382
    6    1.0000000    0.1817598
    7    0.1817598    1.0000000



*** OEI SO
0 0 -32.577395339137630969617021037265658378601074218750 
0 1 -7.578832799256201901982876734109595417976379394531 
0 2 -0.014473833692763480446297208459327521268278360367 
0 3 0.000000000000000000000000000000000000000000000000 
0 4 0.000000000000000001843143693225357537812669761479 
0 5 -1.240102005977337551456685105222277343273162841797 
0 6 -1.240102005977337551456685105222277343273162841797 
1 1 -9.200943201709684160505275940522551536560058593750 
1 2 -0.176890222448545880729042778511939104646444320679 
1 3 0.000000000000000000000000000000000000000000000000 
1 4 0.000000000000000013877787807814456755295395851135 
1 5 -2.906709387980279224450441688532009720802307128906 
1 6 -2.906709387980279668539651538594625890254974365234 
2 2 -7.415311682586292363339453004300594329833984375000 
2 3 0.000000000000000000000000000000000000000000000000 
2 4 0.000000000000000000000000000000000000000000000000 
2 5 -1.356868089075067285165232533472590148448944091797 
2 6 -1.356868089075067729254442383535206317901611328125 
3 3 -7.347144809068284487807432014960795640945434570312 
3 4 0.000000000000000000000000000000000000000000000000 
3 5 0.000000000000000000000000000000000000000000000000 
3 6 0.000000000000000000000000000000000000000000000000 
4 4 -7.458819229270083894789422629401087760925292968750 
4 5 1.675149944035439597556091939623001962900161743164 
4 6 -1.675149944035439597556091939623001962900161743164 
5 5 -4.540170785922237328691153379622846841812133789062 
5 6 -1.071145619171806950831182803085539489984512329102 
6 6 -4.540170785922237328691153379622846841812133789062 
*** TEI
0 0 0 0 4.785065404705503233628860471071675419807434082031 
1 0 0 0 0.741380351973408235899398732726695016026496887207 
1 1 0 0 1.118946866342470425337296546786092221736907958984 
1 0 1 0 0.136873385354388338308595507442078087478876113892 
1 1 1 0 0.256633394730973740660573412242229096591472625732 
1 1 1 1 0.817206321526058543369686049118172377347946166992 
2 2 0 0 1.115813812152427475510307885997463017702102661133 
3 3 0 0 1.115813812152427475510307885997463017702102661133 
4 4 0 0 1.115813812152427475510307885997463017702102661133 
2 0 2 0 0.024477412258099261188615258788559003733098506927 
3 0 3 0 0.024477412258099261188615258788559003733098506927 
4 0 4 0 0.024477412258099261188615258788559003733098506927 
2 2 1 0 0.256683985810102877067606641503516584634780883789 
3 3 1 0 0.256683985810102877067606641503516584634780883789 
4 4 1 0 0.256683985810102877067606641503516584634780883789 
2 1 2 0 0.037808607416360960618018083323477185331284999847 
3 1 3 0 0.037808607416360960618018083323477185331284999847 
4 1 4 0 0.037808607416360960618018083323477185331284999847 
2 2 1 1 0.817022605320914085957895167666720226407051086426 
3 3 1 1 0.817022605320914085957895167666720226407051086426 
4 4 1 1 0.817022605320914085957895167666720226407051086426 
2 1 2 1 0.180518392104632052763690808205865323543548583984 
3 1 3 1 0.180518392104632052763690808205865323543548583984 
4 1 4 1 0.180518392104632052763690808205865323543548583984 
2 2 2 2 0.880159093375044720986011270724702626466751098633 
3 2 3 2 0.047444445118384137582978610225836746394634246826 
3 3 2 2 0.785270203138277222976171287882607430219650268555 
3 3 3 3 0.880159093375044720986011270724702626466751098633 
4 2 4 2 0.047444445118384137582978610225836746394634246826 
4 3 4 3 0.047444445118384137582978610225836746394634246826 
4 4 2 2 0.785270203138277222976171287882607430219650268555 
4 4 3 3 0.785270203138277222976171287882607430219650268555 
4 4 4 4 0.880159093375044720986011270724702626466751098633 
5 0 0 0 0.121785324863798533057135387025482486933469772339 
5 1 0 0 0.313334085322209299206974719709251075983047485352 
5 0 1 0 0.022309231576102251520810071383493777830153703690 
5 1 1 0 0.072840098441296033393577147307951236143708229065 
5 0 1 1 0.041611613971590646898768284245306858792901039124 
5 1 1 1 0.258884453358223187713349489058600738644599914551 
5 2 0 0 0.143396032446858306963477502904424909502267837524 
5 4 0 0 -0.183538551820043582818442473580944351851940155029 
5 0 2 0 0.000630798281251444565437269673680020787287503481 
5 0 4 0 -0.000807384981689562180630359566890774658531881869 
5 2 1 0 0.033749767272547068208687903734244173392653465271 
5 4 1 0 -0.043197732208960441802059193605600739829242229462 
5 1 2 0 0.003372937155042235457536037301906617358326911926 
5 1 4 0 -0.004317162687509437657418231992778601124882698059 
5 0 2 1 0.001186860927533645677575679933113406150368973613 
5 0 4 1 -0.001519112712773606176097640485522788367234170437 
5 2 1 1 0.128060866639775672304324416472809389233589172363 
5 4 1 1 -0.163910434666974719197796162006852682679891586304 
5 1 2 1 0.026387598942842215715698372946462768595665693283 
5 1 4 1 -0.033774586460557830258633060793727054260671138763 
5 2 2 0 0.008774612693547796660187287898224894888699054718 
5 2 4 0 -0.001744920642724560487166196587338617973728105426 
5 3 3 0 0.007411331275992230974147823019393399590626358986 
5 4 2 0 -0.001744920642724561788208803569943938782671466470 
5 4 4 0 0.009644727851488503478361025145204621367156505585 
5 0 2 2 0.041625176123042367803961383287969511002302169800 
5 0 3 3 0.041529977495636846707149913981993449851870536804 
5 0 4 2 -0.000121848686543965290017890734652894479950191453 
5 0 4 4 0.041685936702372534956584360088527319021522998810 
5 2 2 1 0.056178345629013373696558630854269722476601600647 
5 2 4 1 -0.015709755088738976830375904114589502569288015366 
5 3 3 1 0.043904539782240833978299576756398892030119895935 
5 4 2 1 -0.015709755088738976830375904114589502569288015366 
5 4 4 1 0.064012109351874915685876032966916682198643684387 
5 1 2 2 0.259409401600507238949688826323836110532283782959 
5 1 3 3 0.254354987751316985455929398085572756826877593994 
5 1 4 2 -0.006469354711911795216550125076082622399553656578 
5 1 4 4 0.262635384180517406083055220733513124287128448486 
5 2 2 2 0.135497721172674334688679209648398682475090026855 
5 2 3 3 0.122327864092286103803175478788034524768590927124 
5 2 4 2 -0.009945151800284044926736548575263441307470202446 
5 2 4 4 0.126210765723166584706405046745203435420989990234 
5 3 3 2 0.005399852925398912137366913555069913854822516441 
5 3 4 3 -0.006911496566937660492035977455316242412663996220 
5 4 2 2 -0.159606181262320179214952986512798815965652465820 
5 4 3 3 -0.156572526028973812994848913149326108396053314209 
5 4 4 2 0.009282754556279358346126961976096936268731951714 
5 4 4 4 -0.175365406613923441314639717347745317965745925903 
5 5 0 0 0.470723293853198498926104775819112546741962432861 
5 0 5 0 0.003683106477632333650845675165896864200476557016 
5 5 1 0 0.111191799307955738185249572325119515880942344666 
5 1 5 0 0.012121613153677315496969946195804368471726775169 
5 5 1 1 0.454660635329609430499431255157105624675750732422 
5 1 5 1 0.103816532988378493196357510441885096952319145203 
5 5 2 0 0.006340467842811294517380016344532123184762895107 
5 5 4 0 -0.008115428759595614757738069044989970279857516289 
5 2 5 0 0.005849984876016018318922728980169267742894589901 
5 4 5 0 -0.007487639190512770416552346119942740187980234623 
5 5 2 1 0.069417409809551300359231618131161667406558990479 
5 5 4 1 -0.088850232814252944057997751770017202943563461304 
5 2 5 1 0.062406129016108001505980240608550957404077053070 
5 4 5 1 -0.079876202631729176228958522187895141541957855225 
5 5 2 2 0.456900881923088031388857643833034671843051910400 
5 5 3 3 0.436750186138769092014655370803666301071643829346 
5 5 4 2 -0.025791714452007372809783092293400841299444437027 
5 5 4 4 0.469762075231529352414838740514824166893959045410 
5 2 5 2 0.051436792223976887661329726597614353522658348083 
5 3 5 3 0.014356672463302787637329238634720240952447056770 
5 4 5 2 -0.047460389008392049603468620944113354198634624481 
5 4 5 4 0.075103200235222600245066360002965666353702545166 
5 5 5 0 0.018641080347139269562939389857092464808374643326 
5 5 5 1 0.235420912936958354189087572194694075733423233032 
5 5 5 2 0.161483937579580211219010266177065204828977584839 
5 5 5 4 -0.206690014638573116290132247740984894335269927979 
5 5 5 5 0.774605943919897788063622101617511361837387084961 
6 0 0 0 0.121785324863798533057135387025482486933469772339 
6 1 0 0 0.313334085322209354718125950967078097164630889893 
6 0 1 0 0.022309231576102251520810071383493777830153703690 
6 1 1 0 0.072840098441296033393577147307951236143708229065 
6 0 1 1 0.041611613971590646898768284245306858792901039124 
6 1 1 1 0.258884453358223187713349489058600738644599914551 
6 2 0 0 0.143396032446858334719053118533338420093059539795 
6 4 0 0 0.183538551820043582818442473580944351851940155029 
6 0 2 0 0.000630798281251444673857486922230464188032783568 
6 0 4 0 0.000807384981689562072210142318340331257786601782 
6 2 1 0 0.033749767272547068208687903734244173392653465271 
6 4 1 0 0.043197732208960427924271385791143984533846378326 
6 1 2 0 0.003372937155042236758578644284511938167270272970 
6 1 4 0 0.004317162687509437657418231992778601124882698059 
6 0 2 1 0.001186860927533645894416114430214292951859533787 
6 0 4 1 0.001519112712773606176097640485522788367234170437 
6 2 1 1 0.128060866639775700059900032101722899824380874634 
6 4 1 1 0.163910434666974719197796162006852682679891586304 
6 1 2 1 0.026387598942842215715698372946462768595665693283 
6 1 4 1 0.033774586460557830258633060793727054260671138763 
6 2 2 0 0.008774612693547796660187287898224894888699054718 
6 2 4 0 0.001744920642724560704006631084439504775218665600 
6 3 3 0 0.007411331275992230974147823019393399590626358986 
6 4 2 0 0.001744920642724562005049238067044825584162026644 
6 4 4 0 0.009644727851488503478361025145204621367156505585 
6 0 2 2 0.041625176123042367803961383287969511002302169800 
6 0 3 3 0.041529977495636846707149913981993449851870536804 
6 0 4 2 0.000121848686543965290017890734652894479950191453 
6 0 4 4 0.041685936702372534956584360088527319021522998810 
6 2 2 1 0.056178345629013373696558630854269722476601600647 
6 2 4 1 0.015709755088738976830375904114589502569288015366 
6 3 3 1 0.043904539782240833978299576756398892030119895935 
6 4 2 1 0.015709755088738976830375904114589502569288015366 
6 4 4 1 0.064012109351874915685876032966916682198643684387 
6 1 2 2 0.259409401600507238949688826323836110532283782959 
6 1 3 3 0.254354987751316985455929398085572756826877593994 
6 1 4 2 0.006469354711911795216550125076082622399553656578 
6 1 4 4 0.262635384180517461594206451991340145468711853027 
6 2 2 2 0.135497721172674362444254825277312193065881729126 
6 2 3 3 0.122327864092286131558751094416948035359382629395 
6 2 4 2 0.009945151800284044926736548575263441307470202446 
6 2 4 4 0.126210765723166584706405046745203435420989990234 
6 3 3 2 0.005399852925398913872090389531877008266746997833 
6 3 4 3 0.006911496566937660492035977455316242412663996220 
6 4 2 2 0.159606181262320151459377370883885305374860763550 
6 4 3 3 0.156572526028973812994848913149326108396053314209 
6 4 4 2 0.009282754556279360080850437952904030680656433105 
6 4 4 4 0.175365406613923413559064101718831807374954223633 
6 5 0 0 0.105864417450204958970338964263646630570292472839 
6 0 5 0 0.003626345580010018748717826042593515012413263321 
6 5 1 0 0.024847607673827171864688878599736199248582124710 
6 1 5 0 0.011738081884056410578165419167362415464594960213 
6 0 5 1 0.011738081884056412312888895144169509876519441605 
6 5 1 1 0.096193064306848180544662341162620577961206436157 
6 1 5 1 0.082805288360579085149559830369980772957205772400 
6 5 2 0 0.001780484644803470746510232203263512928970158100 
6 2 5 0 0.005670570277520301655238554872084932867437601089 
6 4 5 0 0.006661609785430716752785418321991528500802814960 
6 0 5 2 0.005670570277520300787876816883681385661475360394 
6 0 5 4 -0.006661609785430717620147156310395075706765055656 
6 5 2 1 0.016738369921621410602030621816993516404181718826 
6 2 5 1 0.048360745102128663286400467313796980306506156921 
6 4 5 1 0.044241679986054861795086168285706662572920322418 
6 1 5 2 0.048360745102128663286400467313796980306506156921 
6 1 5 4 -0.044241679986054882611767880007391795516014099121 
6 5 2 2 0.098762327533305008242514588800986530259251594543 
6 5 3 3 0.093903770065918171217056453770055668428540229797 
6 5 4 4 0.095806799218040764043458068499603541567921638489 
6 2 5 2 0.038857861173321940617686465202496037818491458893 
6 2 5 4 -0.025320145459563476314501784258936822880059480667 
6 3 5 3 0.011033888591168220655314158307191974017769098282 
6 4 5 2 0.025320145459563469375607880351708445232361555099 
6 4 5 4 -0.013099737063531607245137067252471751999109983444 
6 5 5 0 0.004091765607313313166115698038538539549335837364 
6 0 5 5 0.017890925611399498967868382237611513119190931320 
6 5 5 1 0.038415472718681377417571098931148299016058444977 
6 1 5 5 0.151924558099700734992154593783197924494743347168 
6 5 5 2 0.025974442525679316412512420697566994931548833847 
6 5 5 4 -0.025685189047494241809665993514499859884381294250 
6 2 5 5 0.096752159312285923586927083306363783776760101318 
6 4 5 5 0.073615412861578383152405535838624928146600723267 
6 5 5 5 0.091353685036804632702001072175335139036178588867 
6 6 0 0 0.470723293853198498926104775819112546741962432861 
6 0 6 0 0.003683106477632333650845675165896864200476557016 
6 6 1 0 0.111191799307955738185249572325119515880942344666 
6 1 6 0 0.012121613153677315496969946195804368471726775169 
6 6 1 1 0.454660635329609430499431255157105624675750732422 
6 1 6 1 0.103816532988378493196357510441885096952319145203 
6 6 2 0 0.006340467842811295384741754332935670390725135803 
6 6 4 0 0.008115428759595613023014593068182875867933034897 
6 2 6 0 0.005849984876016018318922728980169267742894589901 
6 4 6 0 0.007487639190512767814467132154732098570093512535 
6 6 2 1 0.069417409809551314237019425945618422701954841614 
6 6 4 1 0.088850232814252944057997751770017202943563461304 
6 2 6 1 0.062406129016108001505980240608550957404077053070 
6 4 6 1 0.079876202631729176228958522187895141541957855225 
6 6 2 2 0.456900881923088086900008875090861693024635314941 
6 6 3 3 0.436750186138769092014655370803666301071643829346 
6 6 4 2 0.025791714452007376279230044247015030123293399811 
6 6 4 4 0.469762075231529352414838740514824166893959045410 
6 2 6 2 0.051436792223976894600223630504842731170356273651 
6 3 6 3 0.014356672463302787637329238634720240952447056770 
6 4 6 2 0.047460389008392049603468620944113354198634624481 
6 4 6 4 0.075103200235222586367278552188508911058306694031 
6 6 5 0 0.017890925611399498967868382237611513119190931320 
6 5 6 0 0.004091765607313313166115698038538539549335837364 
6 6 5 1 0.151924558099700762747730209412111435085535049438 
6 5 6 1 0.038415472718681370478677195023919921368360519409 
6 6 5 2 0.096752159312285909709139275491907028481364250183 
6 6 5 4 -0.073615412861578397030193343653081683441996574402 
6 5 6 2 0.025974442525679319881959372651181183755397796631 
6 5 6 4 0.025685189047494234870772089607271482236683368683 
6 6 5 5 0.302537888832487500412327108278986997902393341064 
6 5 6 5 0.017861319237097064704933302436984376981854438782 
6 6 6 0 0.018641080347139269562939389857092464808374643326 
6 6 6 1 0.235420912936958381944663187823607586324214935303 
6 6 6 2 0.161483937579580266730161497434892226010560989380 
6 6 6 4 0.206690014638573060778981016483157873153686523438 
6 6 6 5 0.091353685036804646579788879989791894331574440002 
6 6 6 6 0.774605943919897788063622101617511361837387084961 
****  HF Energy = -10000000000000 
****  SO Integrals For DOCI End Here 
number of TEI: 228
Lowest eigenvalue of overlap S = 4.3422219878E-01
0 0 -32.254586545072903902564576128497719764709472656250 
0 1 -2.791490947118389964742846132139675319194793701172 
0 2 0.008610977202826863505236154594513209303840994835 
0 3 -0.000000000000002520371715395922639760490302539960 
0 4 0.000000000000001912082010736490533808762393164216 
0 5 -0.181296592527346256407128066712175495922565460205 
0 6 -0.181296592527344146983381278914748691022396087646 
1 1 -8.236889056550957377567101502791047096252441406250 
1 2 -0.228292543755988813769519651941664051264524459839 
1 3 0.000000000000000148307029677928558649246539320747 
1 4 -0.000000000000001718921229312830867286265856819227 
1 5 -0.385798617939251131669919914202182553708553314209 
1 6 -0.385798617939254129272086402124841697514057159424 
2 2 -7.457029413204351087074428505729883909225463867188 
2 3 0.000000000000001334313124859685124674005793752607 
2 4 -0.000000000000006346214786318027378797523851972073 
2 5 -0.110219579448890867001686899584456114098429679871 
2 6 -0.110219579448894211548548582868534140288829803467 
3 3 -7.347144809068282711450592614710330963134765625000 
3 4 -0.000000000000001466352100068947892911367040244805 
3 5 -0.000000000000000006016727402364367656091171021004 
3 6 0.000000000000000013411596927879301045205266923603 
4 4 -7.542888944848233911955048824893310666084289550781 
4 5 0.113212042130526685523861374349507968872785568237 
4 6 -0.113212042130528919847698432477045571431517601013 
5 5 -4.032954543897414367847886751405894756317138671875 
5 6 -0.044646595597609327332744300065314746461808681488 
6 6 -4.032954543897417032383145851781591773033142089844 

*** PSI4 exiting successfully. Buy a developer a beer!
